[ atomtypes ]
; name at.num mass charge ptype sigma epsilon
SI 14 28.08600 0.000000 A 0.4150 0.3891120
OM 8 15.99940 0.000000 A 0.3470 0.2259360
OA 8 15.99940 0.000000 A 0.3470 0.5104480
HG 1 2.01600 0.000000 A 0.1085 0.0627600
ha 1 1.008000 0.00000000 A 0.26254785 0.0673624
ca 6 12.010000 0.00000000 A 0.33152123 0.4133792
si 14 28.085000 0.00000000 A 0.4150 0.3891120

[ moleculetype ]
; name nrexcl
MSN_6_4 3

[ atoms ]
; nr type resnr resid atom cgnr charge mass
1 OM 1 OM OM1 1 -0.550000 15.99940
2 OM 2 OM OM1 2 -0.550000 15.99940
3 OM 3 OM OM1 3 -0.550000 15.99940
4 OM 4 OM OM1 4 -0.550000 15.99940
5 OM 5 OM OM1 5 -0.550000 15.99940
6 OM 6 OM OM1 6 -0.550000 15.99940
7 OM 7 OM OM1 7 -0.550000 15.99940
8 OM 8 OM OM1 8 -0.550000 15.99940
9 OM 9 OM OM1 9 -0.550000 15.99940
10 OM 10 OM OM1 10 -0.550000 15.99940
11 OM 11 OM OM1 11 -0.550000 15.99940
12 OM 12 OM OM1 12 -0.550000 15.99940
13 OM 13 OM OM1 13 -0.550000 15.99940
14 OM 14 OM OM1 14 -0.550000 15.99940
15 OM 15 OM OM1 15 -0.550000 15.99940
16 OM 16 OM OM1 16 -0.550000 15.99940
17 OM 17 OM OM1 17 -0.550000 15.99940
18 OM 18 OM OM1 18 -0.550000 15.99940
19 OM 19 OM OM1 19 -0.550000 15.99940
20 OM 20 OM OM1 20 -0.550000 15.99940
21 OM 21 OM OM1 21 -0.550000 15.99940
22 OM 22 OM OM1 22 -0.550000 15.99940
23 OM 23 OM OM1 23 -0.550000 15.99940
24 OM 24 OM OM1 24 -0.550000 15.99940
25 OM 25 OM OM1 25 -0.550000 15.99940
26 OM 26 OM OM1 26 -0.550000 15.99940
27 OM 27 OM OM1 27 -0.550000 15.99940
28 OM 28 OM OM1 28 -0.550000 15.99940
29 OM 29 OM OM1 29 -0.550000 15.99940
30 OM 30 OM OM1 30 -0.550000 15.99940
31 OM 31 OM OM1 31 -0.550000 15.99940
32 OM 32 OM OM1 32 -0.550000 15.99940
33 OM 33 OM OM1 33 -0.550000 15.99940
34 OM 34 OM OM1 34 -0.550000 15.99940
35 OM 35 OM OM1 35 -0.550000 15.99940
36 OM 36 OM OM1 36 -0.550000 15.99940
37 OM 37 OM OM1 37 -0.550000 15.99940
38 OM 38 OM OM1 38 -0.550000 15.99940
39 OM 39 OM OM1 39 -0.550000 15.99940
40 OM 40 OM OM1 40 -0.550000 15.99940
41 OM 41 OM OM1 41 -0.550000 15.99940
42 OM 42 OM OM1 42 -0.550000 15.99940
43 OM 43 OM OM1 43 -0.550000 15.99940
44 OM 44 OM OM1 44 -0.550000 15.99940
45 OM 45 OM OM1 45 -0.550000 15.99940
46 OM 46 OM OM1 46 -0.550000 15.99940
47 OM 47 OM OM1 47 -0.550000 15.99940
48 OM 48 OM OM1 48 -0.550000 15.99940
49 OM 49 OM OM1 49 -0.550000 15.99940
50 OM 50 OM OM1 50 -0.550000 15.99940
51 OM 51 OM OM1 51 -0.550000 15.99940
52 OM 52 OM OM1 52 -0.550000 15.99940
53 OM 53 OM OM1 53 -0.550000 15.99940
54 OM 54 OM OM1 54 -0.550000 15.99940
55 OM 55 OM OM1 55 -0.550000 15.99940
56 OM 56 OM OM1 56 -0.550000 15.99940
57 OM 57 OM OM1 57 -0.550000 15.99940
58 OM 58 OM OM1 58 -0.550000 15.99940
59 OM 59 OM OM1 59 -0.550000 15.99940
60 OM 60 OM OM1 60 -0.550000 15.99940
61 OM 61 OM OM1 61 -0.550000 15.99940
62 OM 62 OM OM1 62 -0.550000 15.99940
63 OM 63 OM OM1 63 -0.550000 15.99940
64 OM 64 OM OM1 64 -0.550000 15.99940
65 OM 65 OM OM1 65 -0.550000 15.99940
66 OM 66 OM OM1 66 -0.550000 15.99940
67 OM 67 OM OM1 67 -0.550000 15.99940
68 OM 68 OM OM1 68 -0.550000 15.99940
69 OM 69 OM OM1 69 -0.550000 15.99940
70 OM 70 OM OM1 70 -0.550000 15.99940
71 OM 71 OM OM1 71 -0.550000 15.99940
72 OM 72 OM OM1 72 -0.550000 15.99940
73 OM 73 OM OM1 73 -0.550000 15.99940
74 OM 74 OM OM1 74 -0.550000 15.99940
75 OM 75 OM OM1 75 -0.550000 15.99940
76 OM 76 OM OM1 76 -0.550000 15.99940
77 OM 77 OM OM1 77 -0.550000 15.99940
78 OM 78 OM OM1 78 -0.550000 15.99940
79 OM 79 OM OM1 79 -0.550000 15.99940
80 OM 80 OM OM1 80 -0.550000 15.99940
81 OM 81 OM OM1 81 -0.550000 15.99940
82 OM 82 OM OM1 82 -0.550000 15.99940
83 OM 83 OM OM1 83 -0.550000 15.99940
84 OM 84 OM OM1 84 -0.550000 15.99940
85 OM 85 OM OM1 85 -0.550000 15.99940
86 OM 86 OM OM1 86 -0.550000 15.99940
87 OM 87 OM OM1 87 -0.550000 15.99940
88 OM 88 OM OM1 88 -0.550000 15.99940
89 OM 89 OM OM1 89 -0.550000 15.99940
90 OM 90 OM OM1 90 -0.550000 15.99940
91 OM 91 OM OM1 91 -0.550000 15.99940
92 OM 92 OM OM1 92 -0.550000 15.99940
93 OM 93 OM OM1 93 -0.550000 15.99940
94 OM 94 OM OM1 94 -0.550000 15.99940
95 OM 95 OM OM1 95 -0.550000 15.99940
96 OM 96 OM OM1 96 -0.550000 15.99940
97 OM 97 OM OM1 97 -0.550000 15.99940
98 OM 98 OM OM1 98 -0.550000 15.99940
99 OM 99 OM OM1 99 -0.550000 15.99940
100 OM 100 OM OM1 100 -0.550000 15.99940
101 OM 101 OM OM1 101 -0.550000 15.99940
102 OM 102 OM OM1 102 -0.550000 15.99940
103 OM 103 OM OM1 103 -0.550000 15.99940
104 OM 104 OM OM1 104 -0.550000 15.99940
105 OM 105 OM OM1 105 -0.550000 15.99940
106 OM 106 OM OM1 106 -0.550000 15.99940
107 OM 107 OM OM1 107 -0.550000 15.99940
108 OM 108 OM OM1 108 -0.550000 15.99940
109 OM 109 OM OM1 109 -0.550000 15.99940
110 OM 110 OM OM1 110 -0.550000 15.99940
111 OM 111 OM OM1 111 -0.550000 15.99940
112 OM 112 OM OM1 112 -0.550000 15.99940
113 OM 113 OM OM1 113 -0.550000 15.99940
114 OM 114 OM OM1 114 -0.550000 15.99940
115 OM 115 OM OM1 115 -0.550000 15.99940
116 OM 116 OM OM1 116 -0.550000 15.99940
117 OM 117 OM OM1 117 -0.550000 15.99940
118 OM 118 OM OM1 118 -0.550000 15.99940
119 OM 119 OM OM1 119 -0.550000 15.99940
120 OM 120 OM OM1 120 -0.550000 15.99940
121 OM 121 OM OM1 121 -0.550000 15.99940
122 OM 122 OM OM1 122 -0.550000 15.99940
123 OM 123 OM OM1 123 -0.550000 15.99940
124 OM 124 OM OM1 124 -0.550000 15.99940
125 OM 125 OM OM1 125 -0.550000 15.99940
126 OM 126 OM OM1 126 -0.550000 15.99940
127 OM 127 OM OM1 127 -0.550000 15.99940
128 OM 128 OM OM1 128 -0.550000 15.99940
129 OM 129 OM OM1 129 -0.550000 15.99940
130 OM 130 OM OM1 130 -0.550000 15.99940
131 OM 131 OM OM1 131 -0.550000 15.99940
132 OM 132 OM OM1 132 -0.550000 15.99940
133 OM 133 OM OM1 133 -0.550000 15.99940
134 OM 134 OM OM1 134 -0.550000 15.99940
135 OM 135 OM OM1 135 -0.550000 15.99940
136 OM 136 OM OM1 136 -0.550000 15.99940
137 OM 137 OM OM1 137 -0.550000 15.99940
138 OM 138 OM OM1 138 -0.550000 15.99940
139 OM 139 OM OM1 139 -0.550000 15.99940
140 OM 140 OM OM1 140 -0.550000 15.99940
141 OM 141 OM OM1 141 -0.550000 15.99940
142 OM 142 OM OM1 142 -0.550000 15.99940
143 OM 143 OM OM1 143 -0.550000 15.99940
144 OM 144 OM OM1 144 -0.550000 15.99940
145 OM 145 OM OM1 145 -0.550000 15.99940
146 OM 146 OM OM1 146 -0.550000 15.99940
147 OM 147 OM OM1 147 -0.550000 15.99940
148 OM 148 OM OM1 148 -0.550000 15.99940
149 OM 149 OM OM1 149 -0.550000 15.99940
150 OM 150 OM OM1 150 -0.550000 15.99940
151 OM 151 OM OM1 151 -0.550000 15.99940
152 OM 152 OM OM1 152 -0.550000 15.99940
153 OM 153 OM OM1 153 -0.550000 15.99940
154 OM 154 OM OM1 154 -0.550000 15.99940
155 OM 155 OM OM1 155 -0.550000 15.99940
156 OM 156 OM OM1 156 -0.550000 15.99940
157 OM 157 OM OM1 157 -0.550000 15.99940
158 OM 158 OM OM1 158 -0.550000 15.99940
159 OM 159 OM OM1 159 -0.550000 15.99940
160 OM 160 OM OM1 160 -0.550000 15.99940
161 OM 161 OM OM1 161 -0.550000 15.99940
162 OM 162 OM OM1 162 -0.550000 15.99940
163 OM 163 OM OM1 163 -0.550000 15.99940
164 OM 164 OM OM1 164 -0.550000 15.99940
165 OM 165 OM OM1 165 -0.550000 15.99940
166 OM 166 OM OM1 166 -0.550000 15.99940
167 OM 167 OM OM1 167 -0.550000 15.99940
168 OM 168 OM OM1 168 -0.550000 15.99940
169 OM 169 OM OM1 169 -0.550000 15.99940
170 OM 170 OM OM1 170 -0.550000 15.99940
171 OM 171 OM OM1 171 -0.550000 15.99940
172 OM 172 OM OM1 172 -0.550000 15.99940
173 OM 173 OM OM1 173 -0.550000 15.99940
174 OM 174 OM OM1 174 -0.550000 15.99940
175 OM 175 OM OM1 175 -0.550000 15.99940
176 OM 176 OM OM1 176 -0.550000 15.99940
177 OM 177 OM OM1 177 -0.550000 15.99940
178 OM 178 OM OM1 178 -0.550000 15.99940
179 OM 179 OM OM1 179 -0.550000 15.99940
180 OM 180 OM OM1 180 -0.550000 15.99940
181 OM 181 OM OM1 181 -0.550000 15.99940
182 OM 182 OM OM1 182 -0.550000 15.99940
183 OM 183 OM OM1 183 -0.550000 15.99940
184 OM 184 OM OM1 184 -0.550000 15.99940
185 OM 185 OM OM1 185 -0.550000 15.99940
186 OM 186 OM OM1 186 -0.550000 15.99940
187 OM 187 OM OM1 187 -0.550000 15.99940
188 OM 188 OM OM1 188 -0.550000 15.99940
189 OM 189 OM OM1 189 -0.550000 15.99940
190 OM 190 OM OM1 190 -0.550000 15.99940
191 OM 191 OM OM1 191 -0.550000 15.99940
192 OM 192 OM OM1 192 -0.550000 15.99940
193 OM 193 OM OM1 193 -0.550000 15.99940
194 OM 194 OM OM1 194 -0.550000 15.99940
195 OM 195 OM OM1 195 -0.550000 15.99940
196 OM 196 OM OM1 196 -0.550000 15.99940
197 OM 197 OM OM1 197 -0.550000 15.99940
198 OM 198 OM OM1 198 -0.550000 15.99940
199 OM 199 OM OM1 199 -0.550000 15.99940
200 OM 200 OM OM1 200 -0.550000 15.99940
201 OM 201 OM OM1 201 -0.550000 15.99940
202 OM 202 OM OM1 202 -0.550000 15.99940
203 OM 203 OM OM1 203 -0.550000 15.99940
204 OM 204 OM OM1 204 -0.550000 15.99940
205 OM 205 OM OM1 205 -0.550000 15.99940
206 OM 206 OM OM1 206 -0.550000 15.99940
207 OM 207 OM OM1 207 -0.550000 15.99940
208 OM 208 OM OM1 208 -0.550000 15.99940
209 OM 209 OM OM1 209 -0.550000 15.99940
210 OM 210 OM OM1 210 -0.550000 15.99940
211 OM 211 OM OM1 211 -0.550000 15.99940
212 OM 212 OM OM1 212 -0.550000 15.99940
213 OM 213 OM OM1 213 -0.550000 15.99940
214 OM 214 OM OM1 214 -0.550000 15.99940
215 OM 215 OM OM1 215 -0.550000 15.99940
216 OM 216 OM OM1 216 -0.550000 15.99940
217 OM 217 OM OM1 217 -0.550000 15.99940
218 OM 218 OM OM1 218 -0.550000 15.99940
219 OM 219 OM OM1 219 -0.550000 15.99940
220 OM 220 OM OM1 220 -0.550000 15.99940
221 OM 221 OM OM1 221 -0.550000 15.99940
222 OM 222 OM OM1 222 -0.550000 15.99940
223 OM 223 OM OM1 223 -0.550000 15.99940
224 OM 224 OM OM1 224 -0.550000 15.99940
225 OM 225 OM OM1 225 -0.550000 15.99940
226 OM 226 OM OM1 226 -0.550000 15.99940
227 OM 227 OM OM1 227 -0.550000 15.99940
228 OM 228 OM OM1 228 -0.550000 15.99940
229 OM 229 OM OM1 229 -0.550000 15.99940
230 OM 230 OM OM1 230 -0.550000 15.99940
231 OM 231 OM OM1 231 -0.550000 15.99940
232 OM 232 OM OM1 232 -0.550000 15.99940
233 OM 233 OM OM1 233 -0.550000 15.99940
234 OM 234 OM OM1 234 -0.550000 15.99940
235 OM 235 OM OM1 235 -0.550000 15.99940
236 OM 236 OM OM1 236 -0.550000 15.99940
237 OM 237 OM OM1 237 -0.550000 15.99940
238 OM 238 OM OM1 238 -0.550000 15.99940
239 OM 239 OM OM1 239 -0.550000 15.99940
240 OM 240 OM OM1 240 -0.550000 15.99940
241 OM 241 OM OM1 241 -0.550000 15.99940
242 OM 242 OM OM1 242 -0.550000 15.99940
243 OM 243 OM OM1 243 -0.550000 15.99940
244 OM 244 OM OM1 244 -0.550000 15.99940
245 OM 245 OM OM1 245 -0.550000 15.99940
246 OM 246 OM OM1 246 -0.550000 15.99940
247 OM 247 OM OM1 247 -0.550000 15.99940
248 OM 248 OM OM1 248 -0.550000 15.99940
249 OM 249 OM OM1 249 -0.550000 15.99940
250 OM 250 OM OM1 250 -0.550000 15.99940
251 OM 251 OM OM1 251 -0.550000 15.99940
252 OM 252 OM OM1 252 -0.550000 15.99940
253 OM 253 OM OM1 253 -0.550000 15.99940
254 OM 254 OM OM1 254 -0.550000 15.99940
255 OM 255 OM OM1 255 -0.550000 15.99940
256 OM 256 OM OM1 256 -0.550000 15.99940
257 OM 257 OM OM1 257 -0.550000 15.99940
258 OM 258 OM OM1 258 -0.550000 15.99940
259 OM 259 OM OM1 259 -0.550000 15.99940
260 OM 260 OM OM1 260 -0.550000 15.99940
261 OM 261 OM OM1 261 -0.550000 15.99940
262 OM 262 OM OM1 262 -0.550000 15.99940
263 OM 263 OM OM1 263 -0.550000 15.99940
264 OM 264 OM OM1 264 -0.550000 15.99940
265 OM 265 OM OM1 265 -0.550000 15.99940
266 OM 266 OM OM1 266 -0.550000 15.99940
267 OM 267 OM OM1 267 -0.550000 15.99940
268 OM 268 OM OM1 268 -0.550000 15.99940
269 OM 269 OM OM1 269 -0.550000 15.99940
270 OM 270 OM OM1 270 -0.550000 15.99940
271 OM 271 OM OM1 271 -0.550000 15.99940
272 OM 272 OM OM1 272 -0.550000 15.99940
273 OM 273 OM OM1 273 -0.550000 15.99940
274 OM 274 OM OM1 274 -0.550000 15.99940
275 OM 275 OM OM1 275 -0.550000 15.99940
276 OM 276 OM OM1 276 -0.550000 15.99940
277 OM 277 OM OM1 277 -0.550000 15.99940
278 OM 278 OM OM1 278 -0.550000 15.99940
279 OM 279 OM OM1 279 -0.550000 15.99940
280 OM 280 OM OM1 280 -0.550000 15.99940
281 OM 281 OM OM1 281 -0.550000 15.99940
282 OM 282 OM OM1 282 -0.550000 15.99940
283 OM 283 OM OM1 283 -0.550000 15.99940
284 OM 284 OM OM1 284 -0.550000 15.99940
285 OM 285 OM OM1 285 -0.550000 15.99940
286 OM 286 OM OM1 286 -0.550000 15.99940
287 OM 287 OM OM1 287 -0.550000 15.99940
288 OM 288 OM OM1 288 -0.550000 15.99940
289 OM 289 OM OM1 289 -0.550000 15.99940
290 OM 290 OM OM1 290 -0.550000 15.99940
291 OM 291 OM OM1 291 -0.550000 15.99940
292 OM 292 OM OM1 292 -0.550000 15.99940
293 OM 293 OM OM1 293 -0.550000 15.99940
294 OM 294 OM OM1 294 -0.550000 15.99940
295 OM 295 OM OM1 295 -0.550000 15.99940
296 OM 296 OM OM1 296 -0.550000 15.99940
297 OM 297 OM OM1 297 -0.550000 15.99940
298 OM 298 OM OM1 298 -0.550000 15.99940
299 OM 299 OM OM1 299 -0.550000 15.99940
300 OM 300 OM OM1 300 -0.550000 15.99940
301 OM 301 OM OM1 301 -0.550000 15.99940
302 OM 302 OM OM1 302 -0.550000 15.99940
303 OM 303 OM OM1 303 -0.550000 15.99940
304 OM 304 OM OM1 304 -0.550000 15.99940
305 OM 305 OM OM1 305 -0.550000 15.99940
306 OM 306 OM OM1 306 -0.550000 15.99940
307 OM 307 OM OM1 307 -0.550000 15.99940
308 OM 308 OM OM1 308 -0.550000 15.99940
309 OM 309 OM OM1 309 -0.550000 15.99940
310 OM 310 OM OM1 310 -0.550000 15.99940
311 OM 311 OM OM1 311 -0.550000 15.99940
312 OM 312 OM OM1 312 -0.550000 15.99940
313 OM 313 OM OM1 313 -0.550000 15.99940
314 OM 314 OM OM1 314 -0.550000 15.99940
315 OM 315 OM OM1 315 -0.550000 15.99940
316 OM 316 OM OM1 316 -0.550000 15.99940
317 OM 317 OM OM1 317 -0.550000 15.99940
318 OM 318 OM OM1 318 -0.550000 15.99940
319 OM 319 OM OM1 319 -0.550000 15.99940
320 OM 320 OM OM1 320 -0.550000 15.99940
321 OM 321 OM OM1 321 -0.550000 15.99940
322 OM 322 OM OM1 322 -0.550000 15.99940
323 OM 323 OM OM1 323 -0.550000 15.99940
324 OM 324 OM OM1 324 -0.550000 15.99940
325 OM 325 OM OM1 325 -0.550000 15.99940
326 OM 326 OM OM1 326 -0.550000 15.99940
327 OM 327 OM OM1 327 -0.550000 15.99940
328 OM 328 OM OM1 328 -0.550000 15.99940
329 OM 329 OM OM1 329 -0.550000 15.99940
330 OM 330 OM OM1 330 -0.550000 15.99940
331 OM 331 OM OM1 331 -0.550000 15.99940
332 OM 332 OM OM1 332 -0.550000 15.99940
333 OM 333 OM OM1 333 -0.550000 15.99940
334 OM 334 OM OM1 334 -0.550000 15.99940
335 OM 335 OM OM1 335 -0.550000 15.99940
336 OM 336 OM OM1 336 -0.550000 15.99940
337 OM 337 OM OM1 337 -0.550000 15.99940
338 OM 338 OM OM1 338 -0.550000 15.99940
339 OM 339 OM OM1 339 -0.550000 15.99940
340 OM 340 OM OM1 340 -0.550000 15.99940
341 OM 341 OM OM1 341 -0.550000 15.99940
342 OM 342 OM OM1 342 -0.550000 15.99940
343 OM 343 OM OM1 343 -0.550000 15.99940
344 OM 344 OM OM1 344 -0.550000 15.99940
345 OM 345 OM OM1 345 -0.550000 15.99940
346 OM 346 OM OM1 346 -0.550000 15.99940
347 OM 347 OM OM1 347 -0.550000 15.99940
348 OM 348 OM OM1 348 -0.550000 15.99940
349 OM 349 OM OM1 349 -0.550000 15.99940
350 OM 350 OM OM1 350 -0.550000 15.99940
351 OM 351 OM OM1 351 -0.550000 15.99940
352 OM 352 OM OM1 352 -0.550000 15.99940
353 OM 353 OM OM1 353 -0.550000 15.99940
354 OM 354 OM OM1 354 -0.550000 15.99940
355 OM 355 OM OM1 355 -0.550000 15.99940
356 OM 356 OM OM1 356 -0.550000 15.99940
357 OM 357 OM OM1 357 -0.550000 15.99940
358 OM 358 OM OM1 358 -0.550000 15.99940
359 OM 359 OM OM1 359 -0.550000 15.99940
360 OM 360 OM OM1 360 -0.550000 15.99940
361 OM 361 OM OM1 361 -0.550000 15.99940
362 OM 362 OM OM1 362 -0.550000 15.99940
363 OM 363 OM OM1 363 -0.550000 15.99940
364 OM 364 OM OM1 364 -0.550000 15.99940
365 OM 365 OM OM1 365 -0.550000 15.99940
366 OM 366 OM OM1 366 -0.550000 15.99940
367 OM 367 OM OM1 367 -0.550000 15.99940
368 OM 368 OM OM1 368 -0.550000 15.99940
369 OM 369 OM OM1 369 -0.550000 15.99940
370 OM 370 OM OM1 370 -0.550000 15.99940
371 OM 371 OM OM1 371 -0.550000 15.99940
372 OM 372 OM OM1 372 -0.550000 15.99940
373 OM 373 OM OM1 373 -0.550000 15.99940
374 OM 374 OM OM1 374 -0.550000 15.99940
375 OM 375 OM OM1 375 -0.550000 15.99940
376 OM 376 OM OM1 376 -0.550000 15.99940
377 OM 377 OM OM1 377 -0.550000 15.99940
378 OM 378 OM OM1 378 -0.550000 15.99940
379 OM 379 OM OM1 379 -0.550000 15.99940
380 OM 380 OM OM1 380 -0.550000 15.99940
381 OM 381 OM OM1 381 -0.550000 15.99940
382 OM 382 OM OM1 382 -0.550000 15.99940
383 OM 383 OM OM1 383 -0.550000 15.99940
384 OM 384 OM OM1 384 -0.550000 15.99940
385 OM 385 OM OM1 385 -0.550000 15.99940
386 OM 386 OM OM1 386 -0.550000 15.99940
387 OM 387 OM OM1 387 -0.550000 15.99940
388 OM 388 OM OM1 388 -0.550000 15.99940
389 OM 389 OM OM1 389 -0.550000 15.99940
390 OM 390 OM OM1 390 -0.550000 15.99940
391 OM 391 OM OM1 391 -0.550000 15.99940
392 OM 392 OM OM1 392 -0.550000 15.99940
393 OM 393 OM OM1 393 -0.550000 15.99940
394 OM 394 OM OM1 394 -0.550000 15.99940
395 OM 395 OM OM1 395 -0.550000 15.99940
396 OM 396 OM OM1 396 -0.550000 15.99940
397 OM 397 OM OM1 397 -0.550000 15.99940
398 OM 398 OM OM1 398 -0.550000 15.99940
399 OM 399 OM OM1 399 -0.550000 15.99940
400 OM 400 OM OM1 400 -0.550000 15.99940
401 OM 401 OM OM1 401 -0.550000 15.99940
402 OM 402 OM OM1 402 -0.550000 15.99940
403 OM 403 OM OM1 403 -0.550000 15.99940
404 OM 404 OM OM1 404 -0.550000 15.99940
405 OM 405 OM OM1 405 -0.550000 15.99940
406 OM 406 OM OM1 406 -0.550000 15.99940
407 OM 407 OM OM1 407 -0.550000 15.99940
408 OM 408 OM OM1 408 -0.550000 15.99940
409 OM 409 OM OM1 409 -0.550000 15.99940
410 OM 410 OM OM1 410 -0.550000 15.99940
411 OM 411 OM OM1 411 -0.550000 15.99940
412 OM 412 OM OM1 412 -0.550000 15.99940
413 OM 413 OM OM1 413 -0.550000 15.99940
414 OM 414 OM OM1 414 -0.550000 15.99940
415 OM 415 OM OM1 415 -0.550000 15.99940
416 OM 416 OM OM1 416 -0.550000 15.99940
417 OM 417 OM OM1 417 -0.550000 15.99940
418 OM 418 OM OM1 418 -0.550000 15.99940
419 OM 419 OM OM1 419 -0.550000 15.99940
420 OM 420 OM OM1 420 -0.550000 15.99940
421 OM 421 OM OM1 421 -0.550000 15.99940
422 OM 422 OM OM1 422 -0.550000 15.99940
423 OM 423 OM OM1 423 -0.550000 15.99940
424 OM 424 OM OM1 424 -0.550000 15.99940
425 OM 425 OM OM1 425 -0.550000 15.99940
426 OM 426 OM OM1 426 -0.550000 15.99940
427 OM 427 OM OM1 427 -0.550000 15.99940
428 OM 428 OM OM1 428 -0.550000 15.99940
429 OM 429 OM OM1 429 -0.550000 15.99940
430 OM 430 OM OM1 430 -0.550000 15.99940
431 OM 431 OM OM1 431 -0.550000 15.99940
432 OM 432 OM OM1 432 -0.550000 15.99940
433 OM 433 OM OM1 433 -0.550000 15.99940
434 OM 434 OM OM1 434 -0.550000 15.99940
435 OM 435 OM OM1 435 -0.550000 15.99940
436 OM 436 OM OM1 436 -0.550000 15.99940
437 OM 437 OM OM1 437 -0.550000 15.99940
438 OM 438 OM OM1 438 -0.550000 15.99940
439 OM 439 OM OM1 439 -0.550000 15.99940
440 OM 440 OM OM1 440 -0.550000 15.99940
441 OM 441 OM OM1 441 -0.550000 15.99940
442 OM 442 OM OM1 442 -0.550000 15.99940
443 OM 443 OM OM1 443 -0.550000 15.99940
444 OM 444 OM OM1 444 -0.550000 15.99940
445 OM 445 OM OM1 445 -0.550000 15.99940
446 OM 446 OM OM1 446 -0.550000 15.99940
447 OM 447 OM OM1 447 -0.550000 15.99940
448 OM 448 OM OM1 448 -0.550000 15.99940
449 OM 449 OM OM1 449 -0.550000 15.99940
450 OM 450 OM OM1 450 -0.550000 15.99940
451 OM 451 OM OM1 451 -0.550000 15.99940
452 OM 452 OM OM1 452 -0.550000 15.99940
453 OM 453 OM OM1 453 -0.550000 15.99940
454 OM 454 OM OM1 454 -0.550000 15.99940
455 OM 455 OM OM1 455 -0.550000 15.99940
456 OM 456 OM OM1 456 -0.550000 15.99940
457 OM 457 OM OM1 457 -0.550000 15.99940
458 OM 458 OM OM1 458 -0.550000 15.99940
459 OM 459 OM OM1 459 -0.550000 15.99940
460 OM 460 OM OM1 460 -0.550000 15.99940
461 OM 461 OM OM1 461 -0.550000 15.99940
462 OM 462 OM OM1 462 -0.550000 15.99940
463 OM 463 OM OM1 463 -0.550000 15.99940
464 OM 464 OM OM1 464 -0.550000 15.99940
465 OM 465 OM OM1 465 -0.550000 15.99940
466 OM 466 OM OM1 466 -0.550000 15.99940
467 OM 467 OM OM1 467 -0.550000 15.99940
468 OM 468 OM OM1 468 -0.550000 15.99940
469 OM 469 OM OM1 469 -0.550000 15.99940
470 OM 470 OM OM1 470 -0.550000 15.99940
471 OM 471 OM OM1 471 -0.550000 15.99940
472 OM 472 OM OM1 472 -0.550000 15.99940
473 OM 473 OM OM1 473 -0.550000 15.99940
474 OM 474 OM OM1 474 -0.550000 15.99940
475 OM 475 OM OM1 475 -0.550000 15.99940
476 OM 476 OM OM1 476 -0.550000 15.99940
477 OM 477 OM OM1 477 -0.550000 15.99940
478 OM 478 OM OM1 478 -0.550000 15.99940
479 OM 479 OM OM1 479 -0.550000 15.99940
480 OM 480 OM OM1 480 -0.550000 15.99940
481 OM 481 OM OM1 481 -0.550000 15.99940
482 OM 482 OM OM1 482 -0.550000 15.99940
483 OM 483 OM OM1 483 -0.550000 15.99940
484 OM 484 OM OM1 484 -0.550000 15.99940
485 OM 485 OM OM1 485 -0.550000 15.99940
486 OM 486 OM OM1 486 -0.550000 15.99940
487 OM 487 OM OM1 487 -0.550000 15.99940
488 OM 488 OM OM1 488 -0.550000 15.99940
489 OM 489 OM OM1 489 -0.550000 15.99940
490 OM 490 OM OM1 490 -0.550000 15.99940
491 OM 491 OM OM1 491 -0.550000 15.99940
492 OM 492 OM OM1 492 -0.550000 15.99940
493 OM 493 OM OM1 493 -0.550000 15.99940
494 OM 494 OM OM1 494 -0.550000 15.99940
495 OM 495 OM OM1 495 -0.550000 15.99940
496 OM 496 OM OM1 496 -0.550000 15.99940
497 OM 497 OM OM1 497 -0.550000 15.99940
498 OM 498 OM OM1 498 -0.550000 15.99940
499 OM 499 OM OM1 499 -0.550000 15.99940
500 OM 500 OM OM1 500 -0.550000 15.99940
501 OM 501 OM OM1 501 -0.550000 15.99940
502 OM 502 OM OM1 502 -0.550000 15.99940
503 OM 503 OM OM1 503 -0.550000 15.99940
504 OM 504 OM OM1 504 -0.550000 15.99940
505 OM 505 OM OM1 505 -0.550000 15.99940
506 OM 506 OM OM1 506 -0.550000 15.99940
507 OM 507 OM OM1 507 -0.550000 15.99940
508 OM 508 OM OM1 508 -0.550000 15.99940
509 OM 509 OM OM1 509 -0.550000 15.99940
510 OM 510 OM OM1 510 -0.550000 15.99940
511 OM 511 OM OM1 511 -0.550000 15.99940
512 OM 512 OM OM1 512 -0.550000 15.99940
513 OM 513 OM OM1 513 -0.550000 15.99940
514 OM 514 OM OM1 514 -0.550000 15.99940
515 OM 515 OM OM1 515 -0.550000 15.99940
516 OM 516 OM OM1 516 -0.550000 15.99940
517 OM 517 OM OM1 517 -0.550000 15.99940
518 OM 518 OM OM1 518 -0.550000 15.99940
519 OM 519 OM OM1 519 -0.550000 15.99940
520 OM 520 OM OM1 520 -0.550000 15.99940
521 OM 521 OM OM1 521 -0.550000 15.99940
522 OM 522 OM OM1 522 -0.550000 15.99940
523 OM 523 OM OM1 523 -0.550000 15.99940
524 OM 524 OM OM1 524 -0.550000 15.99940
525 OM 525 OM OM1 525 -0.550000 15.99940
526 OM 526 OM OM1 526 -0.550000 15.99940
527 OM 527 OM OM1 527 -0.550000 15.99940
528 OM 528 OM OM1 528 -0.550000 15.99940
529 OM 529 OM OM1 529 -0.550000 15.99940
530 OM 530 OM OM1 530 -0.550000 15.99940
531 OM 531 OM OM1 531 -0.550000 15.99940
532 OM 532 OM OM1 532 -0.550000 15.99940
533 OM 533 OM OM1 533 -0.550000 15.99940
534 OM 534 OM OM1 534 -0.550000 15.99940
535 OM 535 OM OM1 535 -0.550000 15.99940
536 OM 536 OM OM1 536 -0.550000 15.99940
537 OM 537 OM OM1 537 -0.550000 15.99940
538 OM 538 OM OM1 538 -0.550000 15.99940
539 OM 539 OM OM1 539 -0.550000 15.99940
540 OM 540 OM OM1 540 -0.550000 15.99940
541 OM 541 OM OM1 541 -0.550000 15.99940
542 OM 542 OM OM1 542 -0.550000 15.99940
543 OM 543 OM OM1 543 -0.550000 15.99940
544 OM 544 OM OM1 544 -0.550000 15.99940
545 OM 545 OM OM1 545 -0.550000 15.99940
546 OM 546 OM OM1 546 -0.550000 15.99940
547 OM 547 OM OM1 547 -0.550000 15.99940
548 OM 548 OM OM1 548 -0.550000 15.99940
549 OM 549 OM OM1 549 -0.550000 15.99940
550 OM 550 OM OM1 550 -0.550000 15.99940
551 OM 551 OM OM1 551 -0.550000 15.99940
552 OM 552 OM OM1 552 -0.550000 15.99940
553 OM 553 OM OM1 553 -0.550000 15.99940
554 OM 554 OM OM1 554 -0.550000 15.99940
555 OM 555 OM OM1 555 -0.550000 15.99940
556 OM 556 OM OM1 556 -0.550000 15.99940
557 OM 557 OM OM1 557 -0.550000 15.99940
558 OM 558 OM OM1 558 -0.550000 15.99940
559 OM 559 OM OM1 559 -0.550000 15.99940
560 OM 560 OM OM1 560 -0.550000 15.99940
561 OM 561 OM OM1 561 -0.550000 15.99940
562 OM 562 OM OM1 562 -0.550000 15.99940
563 OM 563 OM OM1 563 -0.550000 15.99940
564 OM 564 OM OM1 564 -0.550000 15.99940
565 OM 565 OM OM1 565 -0.550000 15.99940
566 OM 566 OM OM1 566 -0.550000 15.99940
567 OM 567 OM OM1 567 -0.550000 15.99940
568 OM 568 OM OM1 568 -0.550000 15.99940
569 OM 569 OM OM1 569 -0.550000 15.99940
570 OM 570 OM OM1 570 -0.550000 15.99940
571 OM 571 OM OM1 571 -0.550000 15.99940
572 OM 572 OM OM1 572 -0.550000 15.99940
573 OM 573 OM OM1 573 -0.550000 15.99940
574 OM 574 OM OM1 574 -0.550000 15.99940
575 OM 575 OM OM1 575 -0.550000 15.99940
576 OM 576 OM OM1 576 -0.550000 15.99940
577 OM 577 OM OM1 577 -0.550000 15.99940
578 OM 578 OM OM1 578 -0.550000 15.99940
579 OM 579 OM OM1 579 -0.550000 15.99940
580 OM 580 OM OM1 580 -0.550000 15.99940
581 OM 581 OM OM1 581 -0.550000 15.99940
582 OM 582 OM OM1 582 -0.550000 15.99940
583 OM 583 OM OM1 583 -0.550000 15.99940
584 OM 584 OM OM1 584 -0.550000 15.99940
585 OM 585 OM OM1 585 -0.550000 15.99940
586 OM 586 OM OM1 586 -0.550000 15.99940
587 OM 587 OM OM1 587 -0.550000 15.99940
588 OM 588 OM OM1 588 -0.550000 15.99940
589 OM 589 OM OM1 589 -0.550000 15.99940
590 OM 590 OM OM1 590 -0.550000 15.99940
591 OM 591 OM OM1 591 -0.550000 15.99940
592 OM 592 OM OM1 592 -0.550000 15.99940
593 OM 593 OM OM1 593 -0.550000 15.99940
594 OM 594 OM OM1 594 -0.550000 15.99940
595 OM 595 OM OM1 595 -0.550000 15.99940
596 OM 596 OM OM1 596 -0.550000 15.99940
597 OM 597 OM OM1 597 -0.550000 15.99940
598 OM 598 OM OM1 598 -0.550000 15.99940
599 OM 599 OM OM1 599 -0.550000 15.99940
600 OM 600 OM OM1 600 -0.550000 15.99940
601 OM 601 OM OM1 601 -0.550000 15.99940
602 OM 602 OM OM1 602 -0.550000 15.99940
603 OM 603 OM OM1 603 -0.550000 15.99940
604 OM 604 OM OM1 604 -0.550000 15.99940
605 OM 605 OM OM1 605 -0.550000 15.99940
606 OM 606 OM OM1 606 -0.550000 15.99940
607 OM 607 OM OM1 607 -0.550000 15.99940
608 OM 608 OM OM1 608 -0.550000 15.99940
609 OM 609 OM OM1 609 -0.550000 15.99940
610 OM 610 OM OM1 610 -0.550000 15.99940
611 OM 611 OM OM1 611 -0.550000 15.99940
612 OM 612 OM OM1 612 -0.550000 15.99940
613 OM 613 OM OM1 613 -0.550000 15.99940
614 OM 614 OM OM1 614 -0.550000 15.99940
615 OM 615 OM OM1 615 -0.550000 15.99940
616 OM 616 OM OM1 616 -0.550000 15.99940
617 OM 617 OM OM1 617 -0.550000 15.99940
618 OM 618 OM OM1 618 -0.550000 15.99940
619 OM 619 OM OM1 619 -0.550000 15.99940
620 OM 620 OM OM1 620 -0.550000 15.99940
621 OM 621 OM OM1 621 -0.550000 15.99940
622 OM 622 OM OM1 622 -0.550000 15.99940
623 OM 623 OM OM1 623 -0.550000 15.99940
624 OM 624 OM OM1 624 -0.550000 15.99940
625 OM 625 OM OM1 625 -0.550000 15.99940
626 OM 626 OM OM1 626 -0.550000 15.99940
627 OM 627 OM OM1 627 -0.550000 15.99940
628 OM 628 OM OM1 628 -0.550000 15.99940
629 OM 629 OM OM1 629 -0.550000 15.99940
630 OM 630 OM OM1 630 -0.550000 15.99940
631 OM 631 OM OM1 631 -0.550000 15.99940
632 OM 632 OM OM1 632 -0.550000 15.99940
633 OM 633 OM OM1 633 -0.550000 15.99940
634 OM 634 OM OM1 634 -0.550000 15.99940
635 OM 635 OM OM1 635 -0.550000 15.99940
636 OM 636 OM OM1 636 -0.550000 15.99940
637 OM 637 OM OM1 637 -0.550000 15.99940
638 OM 638 OM OM1 638 -0.550000 15.99940
639 OM 639 OM OM1 639 -0.550000 15.99940
640 OM 640 OM OM1 640 -0.550000 15.99940
641 OM 641 OM OM1 641 -0.550000 15.99940
642 OM 642 OM OM1 642 -0.550000 15.99940
643 OM 643 OM OM1 643 -0.550000 15.99940
644 OM 644 OM OM1 644 -0.550000 15.99940
645 OM 645 OM OM1 645 -0.550000 15.99940
646 OM 646 OM OM1 646 -0.550000 15.99940
647 OM 647 OM OM1 647 -0.550000 15.99940
648 OM 648 OM OM1 648 -0.550000 15.99940
649 OM 649 OM OM1 649 -0.550000 15.99940
650 OM 650 OM OM1 650 -0.550000 15.99940
651 OM 651 OM OM1 651 -0.550000 15.99940
652 OM 652 OM OM1 652 -0.550000 15.99940
653 OM 653 OM OM1 653 -0.550000 15.99940
654 OM 654 OM OM1 654 -0.550000 15.99940
655 OM 655 OM OM1 655 -0.550000 15.99940
656 OM 656 OM OM1 656 -0.550000 15.99940
657 OM 657 OM OM1 657 -0.550000 15.99940
658 OM 658 OM OM1 658 -0.550000 15.99940
659 OM 659 OM OM1 659 -0.550000 15.99940
660 OM 660 OM OM1 660 -0.550000 15.99940
661 OM 661 OM OM1 661 -0.550000 15.99940
662 OM 662 OM OM1 662 -0.550000 15.99940
663 OM 663 OM OM1 663 -0.550000 15.99940
664 OM 664 OM OM1 664 -0.550000 15.99940
665 OM 665 OM OM1 665 -0.550000 15.99940
666 OM 666 OM OM1 666 -0.550000 15.99940
667 OM 667 OM OM1 667 -0.550000 15.99940
668 OM 668 OM OM1 668 -0.550000 15.99940
669 OM 669 OM OM1 669 -0.550000 15.99940
670 OM 670 OM OM1 670 -0.550000 15.99940
671 OM 671 OM OM1 671 -0.550000 15.99940
672 OM 672 OM OM1 672 -0.550000 15.99940
673 OM 673 OM OM1 673 -0.550000 15.99940
674 OM 674 OM OM1 674 -0.550000 15.99940
675 OM 675 OM OM1 675 -0.550000 15.99940
676 OM 676 OM OM1 676 -0.550000 15.99940
677 OM 677 OM OM1 677 -0.550000 15.99940
678 OM 678 OM OM1 678 -0.550000 15.99940
679 OM 679 OM OM1 679 -0.550000 15.99940
680 OM 680 OM OM1 680 -0.550000 15.99940
681 OM 681 OM OM1 681 -0.550000 15.99940
682 OM 682 OM OM1 682 -0.550000 15.99940
683 OM 683 OM OM1 683 -0.550000 15.99940
684 OM 684 OM OM1 684 -0.550000 15.99940
685 OM 685 OM OM1 685 -0.550000 15.99940
686 OM 686 OM OM1 686 -0.550000 15.99940
687 OM 687 OM OM1 687 -0.550000 15.99940
688 OM 688 OM OM1 688 -0.550000 15.99940
689 OM 689 OM OM1 689 -0.550000 15.99940
690 OM 690 OM OM1 690 -0.550000 15.99940
691 OM 691 OM OM1 691 -0.550000 15.99940
692 OM 692 OM OM1 692 -0.550000 15.99940
693 OM 693 OM OM1 693 -0.550000 15.99940
694 OM 694 OM OM1 694 -0.550000 15.99940
695 OM 695 OM OM1 695 -0.550000 15.99940
696 OM 696 OM OM1 696 -0.550000 15.99940
697 OM 697 OM OM1 697 -0.550000 15.99940
698 OM 698 OM OM1 698 -0.550000 15.99940
699 OM 699 OM OM1 699 -0.550000 15.99940
700 OM 700 OM OM1 700 -0.550000 15.99940
701 OM 701 OM OM1 701 -0.550000 15.99940
702 OM 702 OM OM1 702 -0.550000 15.99940
703 OM 703 OM OM1 703 -0.550000 15.99940
704 OM 704 OM OM1 704 -0.550000 15.99940
705 OM 705 OM OM1 705 -0.550000 15.99940
706 OM 706 OM OM1 706 -0.550000 15.99940
707 OM 707 OM OM1 707 -0.550000 15.99940
708 OM 708 OM OM1 708 -0.550000 15.99940
709 OM 709 OM OM1 709 -0.550000 15.99940
710 OM 710 OM OM1 710 -0.550000 15.99940
711 OM 711 OM OM1 711 -0.550000 15.99940
712 OM 712 OM OM1 712 -0.550000 15.99940
713 OM 713 OM OM1 713 -0.550000 15.99940
714 OM 714 OM OM1 714 -0.550000 15.99940
715 OM 715 OM OM1 715 -0.550000 15.99940
716 OM 716 OM OM1 716 -0.550000 15.99940
717 OM 717 OM OM1 717 -0.550000 15.99940
718 OM 718 OM OM1 718 -0.550000 15.99940
719 OM 719 OM OM1 719 -0.550000 15.99940
720 OM 720 OM OM1 720 -0.550000 15.99940
721 OM 721 OM OM1 721 -0.550000 15.99940
722 OM 722 OM OM1 722 -0.550000 15.99940
723 OM 723 OM OM1 723 -0.550000 15.99940
724 OM 724 OM OM1 724 -0.550000 15.99940
725 OM 725 OM OM1 725 -0.550000 15.99940
726 OM 726 OM OM1 726 -0.550000 15.99940
727 OM 727 OM OM1 727 -0.550000 15.99940
728 OM 728 OM OM1 728 -0.550000 15.99940
729 OM 729 OM OM1 729 -0.550000 15.99940
730 OM 730 OM OM1 730 -0.550000 15.99940
731 OM 731 OM OM1 731 -0.550000 15.99940
732 OM 732 OM OM1 732 -0.550000 15.99940
733 OM 733 OM OM1 733 -0.550000 15.99940
734 OM 734 OM OM1 734 -0.550000 15.99940
735 OM 735 OM OM1 735 -0.550000 15.99940
736 OM 736 OM OM1 736 -0.550000 15.99940
737 OM 737 OM OM1 737 -0.550000 15.99940
738 OM 738 OM OM1 738 -0.550000 15.99940
739 OM 739 OM OM1 739 -0.550000 15.99940
740 OM 740 OM OM1 740 -0.550000 15.99940
741 OM 741 OM OM1 741 -0.550000 15.99940
742 OM 742 OM OM1 742 -0.550000 15.99940
743 OM 743 OM OM1 743 -0.550000 15.99940
744 OM 744 OM OM1 744 -0.550000 15.99940
745 OM 745 OM OM1 745 -0.550000 15.99940
746 OM 746 OM OM1 746 -0.550000 15.99940
747 OM 747 OM OM1 747 -0.550000 15.99940
748 OM 748 OM OM1 748 -0.550000 15.99940
749 OM 749 OM OM1 749 -0.550000 15.99940
750 OM 750 OM OM1 750 -0.550000 15.99940
751 OM 751 OM OM1 751 -0.550000 15.99940
752 OM 752 OM OM1 752 -0.550000 15.99940
753 OM 753 OM OM1 753 -0.550000 15.99940
754 OM 754 OM OM1 754 -0.550000 15.99940
755 OM 755 OM OM1 755 -0.550000 15.99940
756 OM 756 OM OM1 756 -0.550000 15.99940
757 OM 757 OM OM1 757 -0.550000 15.99940
758 OM 758 OM OM1 758 -0.550000 15.99940
759 OM 759 OM OM1 759 -0.550000 15.99940
760 OM 760 OM OM1 760 -0.550000 15.99940
761 OM 761 OM OM1 761 -0.550000 15.99940
762 OM 762 OM OM1 762 -0.550000 15.99940
763 OM 763 OM OM1 763 -0.550000 15.99940
764 OM 764 OM OM1 764 -0.550000 15.99940
765 OM 765 OM OM1 765 -0.550000 15.99940
766 OM 766 OM OM1 766 -0.550000 15.99940
767 OM 767 OM OM1 767 -0.550000 15.99940
768 OM 768 OM OM1 768 -0.550000 15.99940
769 OM 769 OM OM1 769 -0.550000 15.99940
770 OM 770 OM OM1 770 -0.550000 15.99940
771 OM 771 OM OM1 771 -0.550000 15.99940
772 OM 772 OM OM1 772 -0.550000 15.99940
773 OM 773 OM OM1 773 -0.550000 15.99940
774 OM 774 OM OM1 774 -0.550000 15.99940
775 OM 775 OM OM1 775 -0.550000 15.99940
776 OM 776 OM OM1 776 -0.550000 15.99940
777 OM 777 OM OM1 777 -0.550000 15.99940
778 OM 778 OM OM1 778 -0.550000 15.99940
779 OM 779 OM OM1 779 -0.550000 15.99940
780 OM 780 OM OM1 780 -0.550000 15.99940
781 OM 781 OM OM1 781 -0.550000 15.99940
782 OM 782 OM OM1 782 -0.550000 15.99940
783 OM 783 OM OM1 783 -0.550000 15.99940
784 OM 784 OM OM1 784 -0.550000 15.99940
785 OM 785 OM OM1 785 -0.550000 15.99940
786 OM 786 OM OM1 786 -0.550000 15.99940
787 OM 787 OM OM1 787 -0.550000 15.99940
788 OM 788 OM OM1 788 -0.550000 15.99940
789 OM 789 OM OM1 789 -0.550000 15.99940
790 OM 790 OM OM1 790 -0.550000 15.99940
791 OM 791 OM OM1 791 -0.550000 15.99940
792 OM 792 OM OM1 792 -0.550000 15.99940
793 OM 793 OM OM1 793 -0.550000 15.99940
794 OM 794 OM OM1 794 -0.550000 15.99940
795 OM 795 OM OM1 795 -0.550000 15.99940
796 OM 796 OM OM1 796 -0.550000 15.99940
797 OM 797 OM OM1 797 -0.550000 15.99940
798 OM 798 OM OM1 798 -0.550000 15.99940
799 OM 799 OM OM1 799 -0.550000 15.99940
800 OM 800 OM OM1 800 -0.550000 15.99940
801 OM 801 OM OM1 801 -0.550000 15.99940
802 OM 802 OM OM1 802 -0.550000 15.99940
803 OM 803 OM OM1 803 -0.550000 15.99940
804 OM 804 OM OM1 804 -0.550000 15.99940
805 OM 805 OM OM1 805 -0.550000 15.99940
806 OM 806 OM OM1 806 -0.550000 15.99940
807 OM 807 OM OM1 807 -0.550000 15.99940
808 OM 808 OM OM1 808 -0.550000 15.99940
809 OM 809 OM OM1 809 -0.550000 15.99940
810 OM 810 OM OM1 810 -0.550000 15.99940
811 OM 811 OM OM1 811 -0.550000 15.99940
812 OM 812 OM OM1 812 -0.550000 15.99940
813 OM 813 OM OM1 813 -0.550000 15.99940
814 OM 814 OM OM1 814 -0.550000 15.99940
815 OM 815 OM OM1 815 -0.550000 15.99940
816 OM 816 OM OM1 816 -0.550000 15.99940
817 OM 817 OM OM1 817 -0.550000 15.99940
818 OM 818 OM OM1 818 -0.550000 15.99940
819 OM 819 OM OM1 819 -0.550000 15.99940
820 OM 820 OM OM1 820 -0.550000 15.99940
821 OM 821 OM OM1 821 -0.550000 15.99940
822 OM 822 OM OM1 822 -0.550000 15.99940
823 OM 823 OM OM1 823 -0.550000 15.99940
824 OM 824 OM OM1 824 -0.550000 15.99940
825 OM 825 OM OM1 825 -0.550000 15.99940
826 OM 826 OM OM1 826 -0.550000 15.99940
827 OM 827 OM OM1 827 -0.550000 15.99940
828 OM 828 OM OM1 828 -0.550000 15.99940
829 OM 829 OM OM1 829 -0.550000 15.99940
830 OM 830 OM OM1 830 -0.550000 15.99940
831 OM 831 OM OM1 831 -0.550000 15.99940
832 OM 832 OM OM1 832 -0.550000 15.99940
833 OM 833 OM OM1 833 -0.550000 15.99940
834 OM 834 OM OM1 834 -0.550000 15.99940
835 OM 835 OM OM1 835 -0.550000 15.99940
836 OM 836 OM OM1 836 -0.550000 15.99940
837 OM 837 OM OM1 837 -0.550000 15.99940
838 OM 838 OM OM1 838 -0.550000 15.99940
839 OM 839 OM OM1 839 -0.550000 15.99940
840 OM 840 OM OM1 840 -0.550000 15.99940
841 OM 841 OM OM1 841 -0.550000 15.99940
842 OM 842 OM OM1 842 -0.550000 15.99940
843 OM 843 OM OM1 843 -0.550000 15.99940
844 OM 844 OM OM1 844 -0.550000 15.99940
845 OM 845 OM OM1 845 -0.550000 15.99940
846 OM 846 OM OM1 846 -0.550000 15.99940
847 OM 847 OM OM1 847 -0.550000 15.99940
848 OM 848 OM OM1 848 -0.550000 15.99940
849 OM 849 OM OM1 849 -0.550000 15.99940
850 OM 850 OM OM1 850 -0.550000 15.99940
851 OM 851 OM OM1 851 -0.550000 15.99940
852 OM 852 OM OM1 852 -0.550000 15.99940
853 OM 853 OM OM1 853 -0.550000 15.99940
854 OM 854 OM OM1 854 -0.550000 15.99940
855 OM 855 OM OM1 855 -0.550000 15.99940
856 OM 856 OM OM1 856 -0.550000 15.99940
857 OM 857 OM OM1 857 -0.550000 15.99940
858 OM 858 OM OM1 858 -0.550000 15.99940
859 OM 859 OM OM1 859 -0.550000 15.99940
860 OM 860 OM OM1 860 -0.550000 15.99940
861 OM 861 OM OM1 861 -0.550000 15.99940
862 OM 862 OM OM1 862 -0.550000 15.99940
863 OM 863 OM OM1 863 -0.550000 15.99940
864 OM 864 OM OM1 864 -0.550000 15.99940
865 OM 865 OM OM1 865 -0.550000 15.99940
866 OM 866 OM OM1 866 -0.550000 15.99940
867 OM 867 OM OM1 867 -0.550000 15.99940
868 OM 868 OM OM1 868 -0.550000 15.99940
869 OM 869 OM OM1 869 -0.550000 15.99940
870 OM 870 OM OM1 870 -0.550000 15.99940
871 OM 871 OM OM1 871 -0.550000 15.99940
872 OM 872 OM OM1 872 -0.550000 15.99940
873 OM 873 OM OM1 873 -0.550000 15.99940
874 OM 874 OM OM1 874 -0.550000 15.99940
875 OM 875 OM OM1 875 -0.550000 15.99940
876 OM 876 OM OM1 876 -0.550000 15.99940
877 OM 877 OM OM1 877 -0.550000 15.99940
878 OM 878 OM OM1 878 -0.550000 15.99940
879 OM 879 OM OM1 879 -0.550000 15.99940
880 OM 880 OM OM1 880 -0.550000 15.99940
881 OM 881 OM OM1 881 -0.550000 15.99940
882 OM 882 OM OM1 882 -0.550000 15.99940
883 OM 883 OM OM1 883 -0.550000 15.99940
884 OM 884 OM OM1 884 -0.550000 15.99940
885 OM 885 OM OM1 885 -0.550000 15.99940
886 OM 886 OM OM1 886 -0.550000 15.99940
887 OM 887 OM OM1 887 -0.550000 15.99940
888 OM 888 OM OM1 888 -0.550000 15.99940
889 OM 889 OM OM1 889 -0.550000 15.99940
890 OM 890 OM OM1 890 -0.550000 15.99940
891 OM 891 OM OM1 891 -0.550000 15.99940
892 OM 892 OM OM1 892 -0.550000 15.99940
893 OM 893 OM OM1 893 -0.550000 15.99940
894 OM 894 OM OM1 894 -0.550000 15.99940
895 OM 895 OM OM1 895 -0.550000 15.99940
896 OM 896 OM OM1 896 -0.550000 15.99940
897 OM 897 OM OM1 897 -0.550000 15.99940
898 OM 898 OM OM1 898 -0.550000 15.99940
899 OM 899 OM OM1 899 -0.550000 15.99940
900 OM 900 OM OM1 900 -0.550000 15.99940
901 OM 901 OM OM1 901 -0.550000 15.99940
902 OM 902 OM OM1 902 -0.550000 15.99940
903 OM 903 OM OM1 903 -0.550000 15.99940
904 OM 904 OM OM1 904 -0.550000 15.99940
905 OM 905 OM OM1 905 -0.550000 15.99940
906 OM 906 OM OM1 906 -0.550000 15.99940
907 OM 907 OM OM1 907 -0.550000 15.99940
908 OM 908 OM OM1 908 -0.550000 15.99940
909 OM 909 OM OM1 909 -0.550000 15.99940
910 OM 910 OM OM1 910 -0.550000 15.99940
911 OM 911 OM OM1 911 -0.550000 15.99940
912 OM 912 OM OM1 912 -0.550000 15.99940
913 OM 913 OM OM1 913 -0.550000 15.99940
914 OM 914 OM OM1 914 -0.550000 15.99940
915 OM 915 OM OM1 915 -0.550000 15.99940
916 OM 916 OM OM1 916 -0.550000 15.99940
917 OM 917 OM OM1 917 -0.550000 15.99940
918 OM 918 OM OM1 918 -0.550000 15.99940
919 OM 919 OM OM1 919 -0.550000 15.99940
920 OM 920 OM OM1 920 -0.550000 15.99940
921 OM 921 OM OM1 921 -0.550000 15.99940
922 OM 922 OM OM1 922 -0.550000 15.99940
923 OM 923 OM OM1 923 -0.550000 15.99940
924 OM 924 OM OM1 924 -0.550000 15.99940
925 OM 925 OM OM1 925 -0.550000 15.99940
926 OM 926 OM OM1 926 -0.550000 15.99940
927 OM 927 OM OM1 927 -0.550000 15.99940
928 OM 928 OM OM1 928 -0.550000 15.99940
929 OM 929 OM OM1 929 -0.550000 15.99940
930 OM 930 OM OM1 930 -0.550000 15.99940
931 OM 931 OM OM1 931 -0.550000 15.99940
932 OM 932 OM OM1 932 -0.550000 15.99940
933 OM 933 OM OM1 933 -0.550000 15.99940
934 OM 934 OM OM1 934 -0.550000 15.99940
935 OM 935 OM OM1 935 -0.550000 15.99940
936 OM 936 OM OM1 936 -0.550000 15.99940
937 OM 937 OM OM1 937 -0.550000 15.99940
938 OM 938 OM OM1 938 -0.550000 15.99940
939 OM 939 OM OM1 939 -0.550000 15.99940
940 OM 940 OM OM1 940 -0.550000 15.99940
941 OM 941 OM OM1 941 -0.550000 15.99940
942 OM 942 OM OM1 942 -0.550000 15.99940
943 OM 943 OM OM1 943 -0.550000 15.99940
944 OM 944 OM OM1 944 -0.550000 15.99940
945 OM 945 OM OM1 945 -0.550000 15.99940
946 OM 946 OM OM1 946 -0.550000 15.99940
947 OM 947 OM OM1 947 -0.550000 15.99940
948 OM 948 OM OM1 948 -0.550000 15.99940
949 OM 949 OM OM1 949 -0.550000 15.99940
950 OM 950 OM OM1 950 -0.550000 15.99940
951 OM 951 OM OM1 951 -0.550000 15.99940
952 OM 952 OM OM1 952 -0.550000 15.99940
953 OM 953 OM OM1 953 -0.550000 15.99940
954 OM 954 OM OM1 954 -0.550000 15.99940
955 OM 955 OM OM1 955 -0.550000 15.99940
956 OM 956 OM OM1 956 -0.550000 15.99940
957 OM 957 OM OM1 957 -0.550000 15.99940
958 OM 958 OM OM1 958 -0.550000 15.99940
959 OM 959 OM OM1 959 -0.550000 15.99940
960 OM 960 OM OM1 960 -0.550000 15.99940
961 OM 961 OM OM1 961 -0.550000 15.99940
962 OM 962 OM OM1 962 -0.550000 15.99940
963 OM 963 OM OM1 963 -0.550000 15.99940
964 OM 964 OM OM1 964 -0.550000 15.99940
965 OM 965 OM OM1 965 -0.550000 15.99940
966 OM 966 OM OM1 966 -0.550000 15.99940
967 OM 967 OM OM1 967 -0.550000 15.99940
968 OM 968 OM OM1 968 -0.550000 15.99940
969 OM 969 OM OM1 969 -0.550000 15.99940
970 OM 970 OM OM1 970 -0.550000 15.99940
971 OM 971 OM OM1 971 -0.550000 15.99940
972 OM 972 OM OM1 972 -0.550000 15.99940
973 OM 973 OM OM1 973 -0.550000 15.99940
974 OM 974 OM OM1 974 -0.550000 15.99940
975 OM 975 OM OM1 975 -0.550000 15.99940
976 OM 976 OM OM1 976 -0.550000 15.99940
977 OM 977 OM OM1 977 -0.550000 15.99940
978 OM 978 OM OM1 978 -0.550000 15.99940
979 OM 979 OM OM1 979 -0.550000 15.99940
980 OM 980 OM OM1 980 -0.550000 15.99940
981 OM 981 OM OM1 981 -0.550000 15.99940
982 OM 982 OM OM1 982 -0.550000 15.99940
983 OM 983 OM OM1 983 -0.550000 15.99940
984 OM 984 OM OM1 984 -0.550000 15.99940
985 OM 985 OM OM1 985 -0.550000 15.99940
986 OM 986 OM OM1 986 -0.550000 15.99940
987 OM 987 OM OM1 987 -0.550000 15.99940
988 OM 988 OM OM1 988 -0.550000 15.99940
989 OM 989 OM OM1 989 -0.550000 15.99940
990 OM 990 OM OM1 990 -0.550000 15.99940
991 OM 991 OM OM1 991 -0.550000 15.99940
992 OM 992 OM OM1 992 -0.550000 15.99940
993 OM 993 OM OM1 993 -0.550000 15.99940
994 OM 994 OM OM1 994 -0.550000 15.99940
995 OM 995 OM OM1 995 -0.550000 15.99940
996 OM 996 OM OM1 996 -0.550000 15.99940
997 OM 997 OM OM1 997 -0.550000 15.99940
998 OM 998 OM OM1 998 -0.550000 15.99940
999 OM 999 OM OM1 999 -0.550000 15.99940
1000 OM 1000 OM OM1 1000 -0.550000 15.99940
1001 OM 1001 OM OM1 1001 -0.550000 15.99940
1002 OM 1002 OM OM1 1002 -0.550000 15.99940
1003 OM 1003 OM OM1 1003 -0.550000 15.99940
1004 OM 1004 OM OM1 1004 -0.550000 15.99940
1005 OM 1005 OM OM1 1005 -0.550000 15.99940
1006 OM 1006 OM OM1 1006 -0.550000 15.99940
1007 OM 1007 OM OM1 1007 -0.550000 15.99940
1008 OM 1008 OM OM1 1008 -0.550000 15.99940
1009 OM 1009 OM OM1 1009 -0.550000 15.99940
1010 OM 1010 OM OM1 1010 -0.550000 15.99940
1011 OM 1011 OM OM1 1011 -0.550000 15.99940
1012 OM 1012 OM OM1 1012 -0.550000 15.99940
1013 OM 1013 OM OM1 1013 -0.550000 15.99940
1014 OM 1014 OM OM1 1014 -0.550000 15.99940
1015 OM 1015 OM OM1 1015 -0.550000 15.99940
1016 OM 1016 OM OM1 1016 -0.550000 15.99940
1017 OM 1017 OM OM1 1017 -0.550000 15.99940
1018 OM 1018 OM OM1 1018 -0.550000 15.99940
1019 OM 1019 OM OM1 1019 -0.550000 15.99940
1020 OM 1020 OM OM1 1020 -0.550000 15.99940
1021 OM 1021 OM OM1 1021 -0.550000 15.99940
1022 OM 1022 OM OM1 1022 -0.550000 15.99940
1023 OM 1023 OM OM1 1023 -0.550000 15.99940
1024 OM 1024 OM OM1 1024 -0.550000 15.99940
1025 OM 1025 OM OM1 1025 -0.550000 15.99940
1026 OM 1026 OM OM1 1026 -0.550000 15.99940
1027 OM 1027 OM OM1 1027 -0.550000 15.99940
1028 OM 1028 OM OM1 1028 -0.550000 15.99940
1029 OM 1029 OM OM1 1029 -0.550000 15.99940
1030 OM 1030 OM OM1 1030 -0.550000 15.99940
1031 OM 1031 OM OM1 1031 -0.550000 15.99940
1032 OM 1032 OM OM1 1032 -0.550000 15.99940
1033 OM 1033 OM OM1 1033 -0.550000 15.99940
1034 OM 1034 OM OM1 1034 -0.550000 15.99940
1035 OM 1035 OM OM1 1035 -0.550000 15.99940
1036 OM 1036 OM OM1 1036 -0.550000 15.99940
1037 OM 1037 OM OM1 1037 -0.550000 15.99940
1038 OM 1038 OM OM1 1038 -0.550000 15.99940
1039 OM 1039 OM OM1 1039 -0.550000 15.99940
1040 OM 1040 OM OM1 1040 -0.550000 15.99940
1041 OM 1041 OM OM1 1041 -0.550000 15.99940
1042 OM 1042 OM OM1 1042 -0.550000 15.99940
1043 OM 1043 OM OM1 1043 -0.550000 15.99940
1044 OM 1044 OM OM1 1044 -0.550000 15.99940
1045 OM 1045 OM OM1 1045 -0.550000 15.99940
1046 OM 1046 OM OM1 1046 -0.550000 15.99940
1047 OM 1047 OM OM1 1047 -0.550000 15.99940
1048 OM 1048 OM OM1 1048 -0.550000 15.99940
1049 OM 1049 OM OM1 1049 -0.550000 15.99940
1050 OM 1050 OM OM1 1050 -0.550000 15.99940
1051 OM 1051 OM OM1 1051 -0.550000 15.99940
1052 OM 1052 OM OM1 1052 -0.550000 15.99940
1053 OM 1053 OM OM1 1053 -0.550000 15.99940
1054 OM 1054 OM OM1 1054 -0.550000 15.99940
1055 OM 1055 OM OM1 1055 -0.550000 15.99940
1056 OM 1056 OM OM1 1056 -0.550000 15.99940
1057 OM 1057 OM OM1 1057 -0.550000 15.99940
1058 OM 1058 OM OM1 1058 -0.550000 15.99940
1059 OM 1059 OM OM1 1059 -0.550000 15.99940
1060 OM 1060 OM OM1 1060 -0.550000 15.99940
1061 OM 1061 OM OM1 1061 -0.550000 15.99940
1062 OM 1062 OM OM1 1062 -0.550000 15.99940
1063 OM 1063 OM OM1 1063 -0.550000 15.99940
1064 OM 1064 OM OM1 1064 -0.550000 15.99940
1065 OM 1065 OM OM1 1065 -0.550000 15.99940
1066 OM 1066 OM OM1 1066 -0.550000 15.99940
1067 OM 1067 OM OM1 1067 -0.550000 15.99940
1068 OM 1068 OM OM1 1068 -0.550000 15.99940
1069 OM 1069 OM OM1 1069 -0.550000 15.99940
1070 OM 1070 OM OM1 1070 -0.550000 15.99940
1071 OM 1071 OM OM1 1071 -0.550000 15.99940
1072 OM 1072 OM OM1 1072 -0.550000 15.99940
1073 OM 1073 OM OM1 1073 -0.550000 15.99940
1074 OM 1074 OM OM1 1074 -0.550000 15.99940
1075 OM 1075 OM OM1 1075 -0.550000 15.99940
1076 OM 1076 OM OM1 1076 -0.550000 15.99940
1077 OM 1077 OM OM1 1077 -0.550000 15.99940
1078 OM 1078 OM OM1 1078 -0.550000 15.99940
1079 OM 1079 OM OM1 1079 -0.550000 15.99940
1080 OM 1080 OM OM1 1080 -0.550000 15.99940
1081 OM 1081 OM OM1 1081 -0.550000 15.99940
1082 OM 1082 OM OM1 1082 -0.550000 15.99940
1083 OM 1083 OM OM1 1083 -0.550000 15.99940
1084 OM 1084 OM OM1 1084 -0.550000 15.99940
1085 OM 1085 OM OM1 1085 -0.550000 15.99940
1086 OM 1086 OM OM1 1086 -0.550000 15.99940
1087 OM 1087 OM OM1 1087 -0.550000 15.99940
1088 OM 1088 OM OM1 1088 -0.550000 15.99940
1089 OM 1089 OM OM1 1089 -0.550000 15.99940
1090 OM 1090 OM OM1 1090 -0.550000 15.99940
1091 OM 1091 OM OM1 1091 -0.550000 15.99940
1092 OM 1092 OM OM1 1092 -0.550000 15.99940
1093 OM 1093 OM OM1 1093 -0.550000 15.99940
1094 OM 1094 OM OM1 1094 -0.550000 15.99940
1095 OM 1095 OM OM1 1095 -0.550000 15.99940
1096 OM 1096 OM OM1 1096 -0.550000 15.99940
1097 OM 1097 OM OM1 1097 -0.550000 15.99940
1098 OM 1098 OM OM1 1098 -0.550000 15.99940
1099 OM 1099 OM OM1 1099 -0.550000 15.99940
1100 OM 1100 OM OM1 1100 -0.550000 15.99940
1101 OM 1101 OM OM1 1101 -0.550000 15.99940
1102 OM 1102 OM OM1 1102 -0.550000 15.99940
1103 OM 1103 OM OM1 1103 -0.550000 15.99940
1104 OM 1104 OM OM1 1104 -0.550000 15.99940
1105 OM 1105 OM OM1 1105 -0.550000 15.99940
1106 OM 1106 OM OM1 1106 -0.550000 15.99940
1107 OM 1107 OM OM1 1107 -0.550000 15.99940
1108 OM 1108 OM OM1 1108 -0.550000 15.99940
1109 OM 1109 OM OM1 1109 -0.550000 15.99940
1110 OM 1110 OM OM1 1110 -0.550000 15.99940
1111 OM 1111 OM OM1 1111 -0.550000 15.99940
1112 OM 1112 OM OM1 1112 -0.550000 15.99940
1113 OM 1113 OM OM1 1113 -0.550000 15.99940
1114 OM 1114 OM OM1 1114 -0.550000 15.99940
1115 OM 1115 OM OM1 1115 -0.550000 15.99940
1116 OM 1116 OM OM1 1116 -0.550000 15.99940
1117 OM 1117 OM OM1 1117 -0.550000 15.99940
1118 OM 1118 OM OM1 1118 -0.550000 15.99940
1119 OM 1119 OM OM1 1119 -0.550000 15.99940
1120 OM 1120 OM OM1 1120 -0.550000 15.99940
1121 OM 1121 OM OM1 1121 -0.550000 15.99940
1122 OM 1122 OM OM1 1122 -0.550000 15.99940
1123 OM 1123 OM OM1 1123 -0.550000 15.99940
1124 OM 1124 OM OM1 1124 -0.550000 15.99940
1125 OM 1125 OM OM1 1125 -0.550000 15.99940
1126 OM 1126 OM OM1 1126 -0.550000 15.99940
1127 OM 1127 OM OM1 1127 -0.550000 15.99940
1128 OM 1128 OM OM1 1128 -0.550000 15.99940
1129 OM 1129 OM OM1 1129 -0.550000 15.99940
1130 OM 1130 OM OM1 1130 -0.550000 15.99940
1131 OM 1131 OM OM1 1131 -0.550000 15.99940
1132 OM 1132 OM OM1 1132 -0.550000 15.99940
1133 OM 1133 OM OM1 1133 -0.550000 15.99940
1134 OM 1134 OM OM1 1134 -0.550000 15.99940
1135 OM 1135 OM OM1 1135 -0.550000 15.99940
1136 OM 1136 OM OM1 1136 -0.550000 15.99940
1137 OM 1137 OM OM1 1137 -0.550000 15.99940
1138 OM 1138 OM OM1 1138 -0.550000 15.99940
1139 OM 1139 OM OM1 1139 -0.550000 15.99940
1140 OM 1140 OM OM1 1140 -0.550000 15.99940
1141 OM 1141 OM OM1 1141 -0.550000 15.99940
1142 OM 1142 OM OM1 1142 -0.550000 15.99940
1143 OM 1143 OM OM1 1143 -0.550000 15.99940
1144 OM 1144 OM OM1 1144 -0.550000 15.99940
1145 OM 1145 OM OM1 1145 -0.550000 15.99940
1146 OM 1146 OM OM1 1146 -0.550000 15.99940
1147 OM 1147 OM OM1 1147 -0.550000 15.99940
1148 OM 1148 OM OM1 1148 -0.550000 15.99940
1149 OM 1149 OM OM1 1149 -0.550000 15.99940
1150 OM 1150 OM OM1 1150 -0.550000 15.99940
1151 OM 1151 OM OM1 1151 -0.550000 15.99940
1152 OM 1152 OM OM1 1152 -0.550000 15.99940
1153 OM 1153 OM OM1 1153 -0.550000 15.99940
1154 OM 1154 OM OM1 1154 -0.550000 15.99940
1155 OM 1155 OM OM1 1155 -0.550000 15.99940
1156 OM 1156 OM OM1 1156 -0.550000 15.99940
1157 OM 1157 OM OM1 1157 -0.550000 15.99940
1158 OM 1158 OM OM1 1158 -0.550000 15.99940
1159 OM 1159 OM OM1 1159 -0.550000 15.99940
1160 OM 1160 OM OM1 1160 -0.550000 15.99940
1161 OM 1161 OM OM1 1161 -0.550000 15.99940
1162 OM 1162 OM OM1 1162 -0.550000 15.99940
1163 OM 1163 OM OM1 1163 -0.550000 15.99940
1164 OM 1164 OM OM1 1164 -0.550000 15.99940
1165 OM 1165 OM OM1 1165 -0.550000 15.99940
1166 OM 1166 OM OM1 1166 -0.550000 15.99940
1167 OM 1167 OM OM1 1167 -0.550000 15.99940
1168 OM 1168 OM OM1 1168 -0.550000 15.99940
1169 OM 1169 OM OM1 1169 -0.550000 15.99940
1170 OM 1170 OM OM1 1170 -0.550000 15.99940
1171 OM 1171 OM OM1 1171 -0.550000 15.99940
1172 OM 1172 OM OM1 1172 -0.550000 15.99940
1173 OM 1173 OM OM1 1173 -0.550000 15.99940
1174 OM 1174 OM OM1 1174 -0.550000 15.99940
1175 OM 1175 OM OM1 1175 -0.550000 15.99940
1176 OM 1176 OM OM1 1176 -0.550000 15.99940
1177 OM 1177 OM OM1 1177 -0.550000 15.99940
1178 OM 1178 OM OM1 1178 -0.550000 15.99940
1179 OM 1179 OM OM1 1179 -0.550000 15.99940
1180 OM 1180 OM OM1 1180 -0.550000 15.99940
1181 OM 1181 OM OM1 1181 -0.550000 15.99940
1182 OM 1182 OM OM1 1182 -0.550000 15.99940
1183 OM 1183 OM OM1 1183 -0.550000 15.99940
1184 OM 1184 OM OM1 1184 -0.550000 15.99940
1185 OM 1185 OM OM1 1185 -0.550000 15.99940
1186 OM 1186 OM OM1 1186 -0.550000 15.99940
1187 OM 1187 OM OM1 1187 -0.550000 15.99940
1188 OM 1188 OM OM1 1188 -0.550000 15.99940
1189 OM 1189 OM OM1 1189 -0.550000 15.99940
1190 OM 1190 OM OM1 1190 -0.550000 15.99940
1191 OM 1191 OM OM1 1191 -0.550000 15.99940
1192 OM 1192 OM OM1 1192 -0.550000 15.99940
1193 OM 1193 OM OM1 1193 -0.550000 15.99940
1194 OM 1194 OM OM1 1194 -0.550000 15.99940
1195 OM 1195 OM OM1 1195 -0.550000 15.99940
1196 OM 1196 OM OM1 1196 -0.550000 15.99940
1197 OM 1197 OM OM1 1197 -0.550000 15.99940
1198 OM 1198 OM OM1 1198 -0.550000 15.99940
1199 OM 1199 OM OM1 1199 -0.550000 15.99940
1200 OM 1200 OM OM1 1200 -0.550000 15.99940
1201 OM 1201 OM OM1 1201 -0.550000 15.99940
1202 OM 1202 OM OM1 1202 -0.550000 15.99940
1203 OM 1203 OM OM1 1203 -0.550000 15.99940
1204 OM 1204 OM OM1 1204 -0.550000 15.99940
1205 OM 1205 OM OM1 1205 -0.550000 15.99940
1206 OM 1206 OM OM1 1206 -0.550000 15.99940
1207 OM 1207 OM OM1 1207 -0.550000 15.99940
1208 OM 1208 OM OM1 1208 -0.550000 15.99940
1209 OM 1209 OM OM1 1209 -0.550000 15.99940
1210 OM 1210 OM OM1 1210 -0.550000 15.99940
1211 OM 1211 OM OM1 1211 -0.550000 15.99940
1212 OM 1212 OM OM1 1212 -0.550000 15.99940
1213 OM 1213 OM OM1 1213 -0.550000 15.99940
1214 OM 1214 OM OM1 1214 -0.550000 15.99940
1215 OM 1215 OM OM1 1215 -0.550000 15.99940
1216 OM 1216 OM OM1 1216 -0.550000 15.99940
1217 OM 1217 OM OM1 1217 -0.550000 15.99940
1218 OM 1218 OM OM1 1218 -0.550000 15.99940
1219 OM 1219 OM OM1 1219 -0.550000 15.99940
1220 OM 1220 OM OM1 1220 -0.550000 15.99940
1221 OM 1221 OM OM1 1221 -0.550000 15.99940
1222 OM 1222 OM OM1 1222 -0.550000 15.99940
1223 OM 1223 OM OM1 1223 -0.550000 15.99940
1224 OM 1224 OM OM1 1224 -0.550000 15.99940
1225 OM 1225 OM OM1 1225 -0.550000 15.99940
1226 OM 1226 OM OM1 1226 -0.550000 15.99940
1227 OM 1227 OM OM1 1227 -0.550000 15.99940
1228 OM 1228 OM OM1 1228 -0.550000 15.99940
1229 OM 1229 OM OM1 1229 -0.550000 15.99940
1230 OM 1230 OM OM1 1230 -0.550000 15.99940
1231 OM 1231 OM OM1 1231 -0.550000 15.99940
1232 OM 1232 OM OM1 1232 -0.550000 15.99940
1233 OM 1233 OM OM1 1233 -0.550000 15.99940
1234 OM 1234 OM OM1 1234 -0.550000 15.99940
1235 OM 1235 OM OM1 1235 -0.550000 15.99940
1236 OM 1236 OM OM1 1236 -0.550000 15.99940
1237 OM 1237 OM OM1 1237 -0.550000 15.99940
1238 OM 1238 OM OM1 1238 -0.550000 15.99940
1239 OM 1239 OM OM1 1239 -0.550000 15.99940
1240 OM 1240 OM OM1 1240 -0.550000 15.99940
1241 OM 1241 OM OM1 1241 -0.550000 15.99940
1242 OM 1242 OM OM1 1242 -0.550000 15.99940
1243 OM 1243 OM OM1 1243 -0.550000 15.99940
1244 OM 1244 OM OM1 1244 -0.550000 15.99940
1245 OM 1245 OM OM1 1245 -0.550000 15.99940
1246 OM 1246 OM OM1 1246 -0.550000 15.99940
1247 OM 1247 OM OM1 1247 -0.550000 15.99940
1248 OM 1248 OM OM1 1248 -0.550000 15.99940
1249 OM 1249 OM OM1 1249 -0.550000 15.99940
1250 OM 1250 OM OM1 1250 -0.550000 15.99940
1251 OM 1251 OM OM1 1251 -0.550000 15.99940
1252 OM 1252 OM OM1 1252 -0.550000 15.99940
1253 OM 1253 OM OM1 1253 -0.550000 15.99940
1254 OM 1254 OM OM1 1254 -0.550000 15.99940
1255 OM 1255 OM OM1 1255 -0.550000 15.99940
1256 OM 1256 OM OM1 1256 -0.550000 15.99940
1257 OM 1257 OM OM1 1257 -0.550000 15.99940
1258 OM 1258 OM OM1 1258 -0.550000 15.99940
1259 OM 1259 OM OM1 1259 -0.550000 15.99940
1260 OM 1260 OM OM1 1260 -0.550000 15.99940
1261 OM 1261 OM OM1 1261 -0.550000 15.99940
1262 OM 1262 OM OM1 1262 -0.550000 15.99940
1263 OM 1263 OM OM1 1263 -0.550000 15.99940
1264 OM 1264 OM OM1 1264 -0.550000 15.99940
1265 OM 1265 OM OM1 1265 -0.550000 15.99940
1266 OM 1266 OM OM1 1266 -0.550000 15.99940
1267 OM 1267 OM OM1 1267 -0.550000 15.99940
1268 OM 1268 OM OM1 1268 -0.550000 15.99940
1269 OM 1269 OM OM1 1269 -0.550000 15.99940
1270 OM 1270 OM OM1 1270 -0.550000 15.99940
1271 OM 1271 OM OM1 1271 -0.550000 15.99940
1272 OM 1272 OM OM1 1272 -0.550000 15.99940
1273 OM 1273 OM OM1 1273 -0.550000 15.99940
1274 OM 1274 OM OM1 1274 -0.550000 15.99940
1275 OM 1275 OM OM1 1275 -0.550000 15.99940
1276 OM 1276 OM OM1 1276 -0.550000 15.99940
1277 OM 1277 OM OM1 1277 -0.550000 15.99940
1278 OM 1278 OM OM1 1278 -0.550000 15.99940
1279 OM 1279 OM OM1 1279 -0.550000 15.99940
1280 OM 1280 OM OM1 1280 -0.550000 15.99940
1281 OM 1281 OM OM1 1281 -0.550000 15.99940
1282 OM 1282 OM OM1 1282 -0.550000 15.99940
1283 OM 1283 OM OM1 1283 -0.550000 15.99940
1284 OM 1284 OM OM1 1284 -0.550000 15.99940
1285 OM 1285 OM OM1 1285 -0.550000 15.99940
1286 OM 1286 OM OM1 1286 -0.550000 15.99940
1287 OM 1287 OM OM1 1287 -0.550000 15.99940
1288 OM 1288 OM OM1 1288 -0.550000 15.99940
1289 OM 1289 OM OM1 1289 -0.550000 15.99940
1290 OM 1290 OM OM1 1290 -0.550000 15.99940
1291 OM 1291 OM OM1 1291 -0.550000 15.99940
1292 OM 1292 OM OM1 1292 -0.550000 15.99940
1293 OM 1293 OM OM1 1293 -0.550000 15.99940
1294 OM 1294 OM OM1 1294 -0.550000 15.99940
1295 OM 1295 OM OM1 1295 -0.550000 15.99940
1296 OM 1296 OM OM1 1296 -0.550000 15.99940
1297 OM 1297 OM OM1 1297 -0.550000 15.99940
1298 OM 1298 OM OM1 1298 -0.550000 15.99940
1299 OM 1299 OM OM1 1299 -0.550000 15.99940
1300 OM 1300 OM OM1 1300 -0.550000 15.99940
1301 OM 1301 OM OM1 1301 -0.550000 15.99940
1302 OM 1302 OM OM1 1302 -0.550000 15.99940
1303 OM 1303 OM OM1 1303 -0.550000 15.99940
1304 OM 1304 OM OM1 1304 -0.550000 15.99940
1305 OM 1305 OM OM1 1305 -0.550000 15.99940
1306 OM 1306 OM OM1 1306 -0.550000 15.99940
1307 OM 1307 OM OM1 1307 -0.550000 15.99940
1308 OM 1308 OM OM1 1308 -0.550000 15.99940
1309 OM 1309 OM OM1 1309 -0.550000 15.99940
1310 OM 1310 OM OM1 1310 -0.550000 15.99940
1311 OM 1311 OM OM1 1311 -0.550000 15.99940
1312 OM 1312 OM OM1 1312 -0.550000 15.99940
1313 OM 1313 OM OM1 1313 -0.550000 15.99940
1314 OM 1314 OM OM1 1314 -0.550000 15.99940
1315 OM 1315 OM OM1 1315 -0.550000 15.99940
1316 OM 1316 OM OM1 1316 -0.550000 15.99940
1317 OM 1317 OM OM1 1317 -0.550000 15.99940
1318 OM 1318 OM OM1 1318 -0.550000 15.99940
1319 OM 1319 OM OM1 1319 -0.550000 15.99940
1320 OM 1320 OM OM1 1320 -0.550000 15.99940
1321 OM 1321 OM OM1 1321 -0.550000 15.99940
1322 OM 1322 OM OM1 1322 -0.550000 15.99940
1323 OM 1323 OM OM1 1323 -0.550000 15.99940
1324 OM 1324 OM OM1 1324 -0.550000 15.99940
1325 OM 1325 OM OM1 1325 -0.550000 15.99940
1326 OM 1326 OM OM1 1326 -0.550000 15.99940
1327 OM 1327 OM OM1 1327 -0.550000 15.99940
1328 OM 1328 OM OM1 1328 -0.550000 15.99940
1329 OM 1329 OM OM1 1329 -0.550000 15.99940
1330 OM 1330 OM OM1 1330 -0.550000 15.99940
1331 OM 1331 OM OM1 1331 -0.550000 15.99940
1332 OM 1332 OM OM1 1332 -0.550000 15.99940
1333 OM 1333 OM OM1 1333 -0.550000 15.99940
1334 OM 1334 OM OM1 1334 -0.550000 15.99940
1335 OM 1335 OM OM1 1335 -0.550000 15.99940
1336 OM 1336 OM OM1 1336 -0.550000 15.99940
1337 OM 1337 OM OM1 1337 -0.550000 15.99940
1338 OM 1338 OM OM1 1338 -0.550000 15.99940
1339 OM 1339 OM OM1 1339 -0.550000 15.99940
1340 OM 1340 OM OM1 1340 -0.550000 15.99940
1341 OM 1341 OM OM1 1341 -0.550000 15.99940
1342 OM 1342 OM OM1 1342 -0.550000 15.99940
1343 OM 1343 OM OM1 1343 -0.550000 15.99940
1344 OM 1344 OM OM1 1344 -0.550000 15.99940
1345 OM 1345 OM OM1 1345 -0.550000 15.99940
1346 OM 1346 OM OM1 1346 -0.550000 15.99940
1347 OM 1347 OM OM1 1347 -0.550000 15.99940
1348 OM 1348 OM OM1 1348 -0.550000 15.99940
1349 OM 1349 OM OM1 1349 -0.550000 15.99940
1350 OM 1350 OM OM1 1350 -0.550000 15.99940
1351 OM 1351 OM OM1 1351 -0.550000 15.99940
1352 OM 1352 OM OM1 1352 -0.550000 15.99940
1353 OM 1353 OM OM1 1353 -0.550000 15.99940
1354 OM 1354 OM OM1 1354 -0.550000 15.99940
1355 OM 1355 OM OM1 1355 -0.550000 15.99940
1356 OM 1356 OM OM1 1356 -0.550000 15.99940
1357 OM 1357 OM OM1 1357 -0.550000 15.99940
1358 OM 1358 OM OM1 1358 -0.550000 15.99940
1359 OM 1359 OM OM1 1359 -0.550000 15.99940
1360 OM 1360 OM OM1 1360 -0.550000 15.99940
1361 OM 1361 OM OM1 1361 -0.550000 15.99940
1362 OM 1362 OM OM1 1362 -0.550000 15.99940
1363 OM 1363 OM OM1 1363 -0.550000 15.99940
1364 OM 1364 OM OM1 1364 -0.550000 15.99940
1365 OM 1365 OM OM1 1365 -0.550000 15.99940
1366 OM 1366 OM OM1 1366 -0.550000 15.99940
1367 OM 1367 OM OM1 1367 -0.550000 15.99940
1368 OM 1368 OM OM1 1368 -0.550000 15.99940
1369 OM 1369 OM OM1 1369 -0.550000 15.99940
1370 OM 1370 OM OM1 1370 -0.550000 15.99940
1371 OM 1371 OM OM1 1371 -0.550000 15.99940
1372 OM 1372 OM OM1 1372 -0.550000 15.99940
1373 OM 1373 OM OM1 1373 -0.550000 15.99940
1374 OM 1374 OM OM1 1374 -0.550000 15.99940
1375 OM 1375 OM OM1 1375 -0.550000 15.99940
1376 OM 1376 OM OM1 1376 -0.550000 15.99940
1377 OM 1377 OM OM1 1377 -0.550000 15.99940
1378 OM 1378 OM OM1 1378 -0.550000 15.99940
1379 OM 1379 OM OM1 1379 -0.550000 15.99940
1380 OM 1380 OM OM1 1380 -0.550000 15.99940
1381 OM 1381 OM OM1 1381 -0.550000 15.99940
1382 OM 1382 OM OM1 1382 -0.550000 15.99940
1383 OM 1383 OM OM1 1383 -0.550000 15.99940
1384 OM 1384 OM OM1 1384 -0.550000 15.99940
1385 OM 1385 OM OM1 1385 -0.550000 15.99940
1386 OM 1386 OM OM1 1386 -0.550000 15.99940
1387 OM 1387 OM OM1 1387 -0.550000 15.99940
1388 OM 1388 OM OM1 1388 -0.550000 15.99940
1389 OM 1389 OM OM1 1389 -0.550000 15.99940
1390 OM 1390 OM OM1 1390 -0.550000 15.99940
1391 OM 1391 OM OM1 1391 -0.550000 15.99940
1392 OM 1392 OM OM1 1392 -0.550000 15.99940
1393 OM 1393 OM OM1 1393 -0.550000 15.99940
1394 OM 1394 OM OM1 1394 -0.550000 15.99940
1395 OM 1395 OM OM1 1395 -0.550000 15.99940
1396 OM 1396 OM OM1 1396 -0.550000 15.99940
1397 OM 1397 OM OM1 1397 -0.550000 15.99940
1398 OM 1398 OM OM1 1398 -0.550000 15.99940
1399 OM 1399 OM OM1 1399 -0.550000 15.99940
1400 OM 1400 OM OM1 1400 -0.550000 15.99940
1401 OM 1401 OM OM1 1401 -0.550000 15.99940
1402 OM 1402 OM OM1 1402 -0.550000 15.99940
1403 OM 1403 OM OM1 1403 -0.550000 15.99940
1404 OM 1404 OM OM1 1404 -0.550000 15.99940
1405 OM 1405 OM OM1 1405 -0.550000 15.99940
1406 OM 1406 OM OM1 1406 -0.550000 15.99940
1407 OM 1407 OM OM1 1407 -0.550000 15.99940
1408 OM 1408 OM OM1 1408 -0.550000 15.99940
1409 OM 1409 OM OM1 1409 -0.550000 15.99940
1410 OM 1410 OM OM1 1410 -0.550000 15.99940
1411 OM 1411 OM OM1 1411 -0.550000 15.99940
1412 OM 1412 OM OM1 1412 -0.550000 15.99940
1413 OM 1413 OM OM1 1413 -0.550000 15.99940
1414 OM 1414 OM OM1 1414 -0.550000 15.99940
1415 OM 1415 OM OM1 1415 -0.550000 15.99940
1416 OM 1416 OM OM1 1416 -0.550000 15.99940
1417 OM 1417 OM OM1 1417 -0.550000 15.99940
1418 OM 1418 OM OM1 1418 -0.550000 15.99940
1419 OM 1419 OM OM1 1419 -0.550000 15.99940
1420 OM 1420 OM OM1 1420 -0.550000 15.99940
1421 OM 1421 OM OM1 1421 -0.550000 15.99940
1422 OM 1422 OM OM1 1422 -0.550000 15.99940
1423 OM 1423 OM OM1 1423 -0.550000 15.99940
1424 OM 1424 OM OM1 1424 -0.550000 15.99940
1425 OM 1425 OM OM1 1425 -0.550000 15.99940
1426 OM 1426 OM OM1 1426 -0.550000 15.99940
1427 OM 1427 OM OM1 1427 -0.550000 15.99940
1428 OM 1428 OM OM1 1428 -0.550000 15.99940
1429 OM 1429 OM OM1 1429 -0.550000 15.99940
1430 OM 1430 OM OM1 1430 -0.550000 15.99940
1431 OM 1431 OM OM1 1431 -0.550000 15.99940
1432 OM 1432 OM OM1 1432 -0.550000 15.99940
1433 OM 1433 OM OM1 1433 -0.550000 15.99940
1434 OM 1434 OM OM1 1434 -0.550000 15.99940
1435 OM 1435 OM OM1 1435 -0.550000 15.99940
1436 OM 1436 OM OM1 1436 -0.550000 15.99940
1437 OM 1437 OM OM1 1437 -0.550000 15.99940
1438 OM 1438 OM OM1 1438 -0.550000 15.99940
1439 OM 1439 OM OM1 1439 -0.550000 15.99940
1440 OM 1440 OM OM1 1440 -0.550000 15.99940
1441 OM 1441 OM OM1 1441 -0.550000 15.99940
1442 OM 1442 OM OM1 1442 -0.550000 15.99940
1443 OM 1443 OM OM1 1443 -0.550000 15.99940
1444 OM 1444 OM OM1 1444 -0.550000 15.99940
1445 OM 1445 OM OM1 1445 -0.550000 15.99940
1446 OM 1446 OM OM1 1446 -0.550000 15.99940
1447 OM 1447 OM OM1 1447 -0.550000 15.99940
1448 OM 1448 OM OM1 1448 -0.550000 15.99940
1449 OM 1449 OM OM1 1449 -0.550000 15.99940
1450 OM 1450 OM OM1 1450 -0.550000 15.99940
1451 OM 1451 OM OM1 1451 -0.550000 15.99940
1452 OM 1452 OM OM1 1452 -0.550000 15.99940
1453 OM 1453 OM OM1 1453 -0.550000 15.99940
1454 OM 1454 OM OM1 1454 -0.550000 15.99940
1455 OM 1455 OM OM1 1455 -0.550000 15.99940
1456 OM 1456 OM OM1 1456 -0.550000 15.99940
1457 OM 1457 OM OM1 1457 -0.550000 15.99940
1458 OM 1458 OM OM1 1458 -0.550000 15.99940
1459 OM 1459 OM OM1 1459 -0.550000 15.99940
1460 OM 1460 OM OM1 1460 -0.550000 15.99940
1461 OM 1461 OM OM1 1461 -0.550000 15.99940
1462 OM 1462 OM OM1 1462 -0.550000 15.99940
1463 OM 1463 OM OM1 1463 -0.550000 15.99940
1464 OM 1464 OM OM1 1464 -0.550000 15.99940
1465 OM 1465 OM OM1 1465 -0.550000 15.99940
1466 OM 1466 OM OM1 1466 -0.550000 15.99940
1467 OM 1467 OM OM1 1467 -0.550000 15.99940
1468 OM 1468 OM OM1 1468 -0.550000 15.99940
1469 OM 1469 OM OM1 1469 -0.550000 15.99940
1470 OM 1470 OM OM1 1470 -0.550000 15.99940
1471 OM 1471 OM OM1 1471 -0.550000 15.99940
1472 OM 1472 OM OM1 1472 -0.550000 15.99940
1473 OM 1473 OM OM1 1473 -0.550000 15.99940
1474 OM 1474 OM OM1 1474 -0.550000 15.99940
1475 OM 1475 OM OM1 1475 -0.550000 15.99940
1476 OM 1476 OM OM1 1476 -0.550000 15.99940
1477 OM 1477 OM OM1 1477 -0.550000 15.99940
1478 OM 1478 OM OM1 1478 -0.550000 15.99940
1479 OM 1479 OM OM1 1479 -0.550000 15.99940
1480 OM 1480 OM OM1 1480 -0.550000 15.99940
1481 OM 1481 OM OM1 1481 -0.550000 15.99940
1482 OM 1482 OM OM1 1482 -0.550000 15.99940
1483 OM 1483 OM OM1 1483 -0.550000 15.99940
1484 OM 1484 OM OM1 1484 -0.550000 15.99940
1485 OM 1485 OM OM1 1485 -0.550000 15.99940
1486 OM 1486 OM OM1 1486 -0.550000 15.99940
1487 OM 1487 OM OM1 1487 -0.550000 15.99940
1488 OM 1488 OM OM1 1488 -0.550000 15.99940
1489 OM 1489 OM OM1 1489 -0.550000 15.99940
1490 OM 1490 OM OM1 1490 -0.550000 15.99940
1491 OM 1491 OM OM1 1491 -0.550000 15.99940
1492 OM 1492 OM OM1 1492 -0.550000 15.99940
1493 OM 1493 OM OM1 1493 -0.550000 15.99940
1494 OM 1494 OM OM1 1494 -0.550000 15.99940
1495 OM 1495 OM OM1 1495 -0.550000 15.99940
1496 OM 1496 OM OM1 1496 -0.550000 15.99940
1497 OM 1497 OM OM1 1497 -0.550000 15.99940
1498 OM 1498 OM OM1 1498 -0.550000 15.99940
1499 OM 1499 OM OM1 1499 -0.550000 15.99940
1500 OM 1500 OM OM1 1500 -0.550000 15.99940
1501 OM 1501 OM OM1 1501 -0.550000 15.99940
1502 OM 1502 OM OM1 1502 -0.550000 15.99940
1503 OM 1503 OM OM1 1503 -0.550000 15.99940
1504 OM 1504 OM OM1 1504 -0.550000 15.99940
1505 OM 1505 OM OM1 1505 -0.550000 15.99940
1506 OM 1506 OM OM1 1506 -0.550000 15.99940
1507 OM 1507 OM OM1 1507 -0.550000 15.99940
1508 OM 1508 OM OM1 1508 -0.550000 15.99940
1509 OM 1509 OM OM1 1509 -0.550000 15.99940
1510 OM 1510 OM OM1 1510 -0.550000 15.99940
1511 OM 1511 OM OM1 1511 -0.550000 15.99940
1512 OM 1512 OM OM1 1512 -0.550000 15.99940
1513 OM 1513 OM OM1 1513 -0.550000 15.99940
1514 OM 1514 OM OM1 1514 -0.550000 15.99940
1515 OM 1515 OM OM1 1515 -0.550000 15.99940
1516 OM 1516 OM OM1 1516 -0.550000 15.99940
1517 OM 1517 OM OM1 1517 -0.550000 15.99940
1518 OM 1518 OM OM1 1518 -0.550000 15.99940
1519 OM 1519 OM OM1 1519 -0.550000 15.99940
1520 OM 1520 OM OM1 1520 -0.550000 15.99940
1521 OM 1521 OM OM1 1521 -0.550000 15.99940
1522 OM 1522 OM OM1 1522 -0.550000 15.99940
1523 OM 1523 OM OM1 1523 -0.550000 15.99940
1524 OM 1524 OM OM1 1524 -0.550000 15.99940
1525 OM 1525 OM OM1 1525 -0.550000 15.99940
1526 OM 1526 OM OM1 1526 -0.550000 15.99940
1527 OM 1527 OM OM1 1527 -0.550000 15.99940
1528 OM 1528 OM OM1 1528 -0.550000 15.99940
1529 OM 1529 OM OM1 1529 -0.550000 15.99940
1530 OM 1530 OM OM1 1530 -0.550000 15.99940
1531 OM 1531 OM OM1 1531 -0.550000 15.99940
1532 OM 1532 OM OM1 1532 -0.550000 15.99940
1533 OM 1533 OM OM1 1533 -0.550000 15.99940
1534 OM 1534 OM OM1 1534 -0.550000 15.99940
1535 OM 1535 OM OM1 1535 -0.550000 15.99940
1536 OM 1536 OM OM1 1536 -0.550000 15.99940
1537 OM 1537 OM OM1 1537 -0.550000 15.99940
1538 OM 1538 OM OM1 1538 -0.550000 15.99940
1539 OM 1539 OM OM1 1539 -0.550000 15.99940
1540 OM 1540 OM OM1 1540 -0.550000 15.99940
1541 OM 1541 OM OM1 1541 -0.550000 15.99940
1542 OM 1542 OM OM1 1542 -0.550000 15.99940
1543 OM 1543 OM OM1 1543 -0.550000 15.99940
1544 OM 1544 OM OM1 1544 -0.550000 15.99940
1545 OM 1545 OM OM1 1545 -0.550000 15.99940
1546 OM 1546 OM OM1 1546 -0.550000 15.99940
1547 OM 1547 OM OM1 1547 -0.550000 15.99940
1548 OM 1548 OM OM1 1548 -0.550000 15.99940
1549 OM 1549 OM OM1 1549 -0.550000 15.99940
1550 OM 1550 OM OM1 1550 -0.550000 15.99940
1551 OM 1551 OM OM1 1551 -0.550000 15.99940
1552 OM 1552 OM OM1 1552 -0.550000 15.99940
1553 OM 1553 OM OM1 1553 -0.550000 15.99940
1554 OM 1554 OM OM1 1554 -0.550000 15.99940
1555 OM 1555 OM OM1 1555 -0.550000 15.99940
1556 OM 1556 OM OM1 1556 -0.550000 15.99940
1557 OM 1557 OM OM1 1557 -0.550000 15.99940
1558 OM 1558 OM OM1 1558 -0.550000 15.99940
1559 OM 1559 OM OM1 1559 -0.550000 15.99940
1560 OM 1560 OM OM1 1560 -0.550000 15.99940
1561 OM 1561 OM OM1 1561 -0.550000 15.99940
1562 OM 1562 OM OM1 1562 -0.550000 15.99940
1563 OM 1563 OM OM1 1563 -0.550000 15.99940
1564 OM 1564 OM OM1 1564 -0.550000 15.99940
1565 OM 1565 OM OM1 1565 -0.550000 15.99940
1566 OM 1566 OM OM1 1566 -0.550000 15.99940
1567 OM 1567 OM OM1 1567 -0.550000 15.99940
1568 OM 1568 OM OM1 1568 -0.550000 15.99940
1569 OM 1569 OM OM1 1569 -0.550000 15.99940
1570 OM 1570 OM OM1 1570 -0.550000 15.99940
1571 OM 1571 OM OM1 1571 -0.550000 15.99940
1572 OM 1572 OM OM1 1572 -0.550000 15.99940
1573 OM 1573 OM OM1 1573 -0.550000 15.99940
1574 OM 1574 OM OM1 1574 -0.550000 15.99940
1575 OM 1575 OM OM1 1575 -0.550000 15.99940
1576 OM 1576 OM OM1 1576 -0.550000 15.99940
1577 OM 1577 OM OM1 1577 -0.550000 15.99940
1578 OM 1578 OM OM1 1578 -0.550000 15.99940
1579 OM 1579 OM OM1 1579 -0.550000 15.99940
1580 OM 1580 OM OM1 1580 -0.550000 15.99940
1581 OM 1581 OM OM1 1581 -0.550000 15.99940
1582 OM 1582 OM OM1 1582 -0.550000 15.99940
1583 OM 1583 OM OM1 1583 -0.550000 15.99940
1584 OM 1584 OM OM1 1584 -0.550000 15.99940
1585 OM 1585 OM OM1 1585 -0.550000 15.99940
1586 OM 1586 OM OM1 1586 -0.550000 15.99940
1587 OM 1587 OM OM1 1587 -0.550000 15.99940
1588 OM 1588 OM OM1 1588 -0.550000 15.99940
1589 OM 1589 OM OM1 1589 -0.550000 15.99940
1590 OM 1590 OM OM1 1590 -0.550000 15.99940
1591 OM 1591 OM OM1 1591 -0.550000 15.99940
1592 OM 1592 OM OM1 1592 -0.550000 15.99940
1593 OM 1593 OM OM1 1593 -0.550000 15.99940
1594 OM 1594 OM OM1 1594 -0.550000 15.99940
1595 OM 1595 OM OM1 1595 -0.550000 15.99940
1596 OM 1596 OM OM1 1596 -0.550000 15.99940
1597 OM 1597 OM OM1 1597 -0.550000 15.99940
1598 OM 1598 OM OM1 1598 -0.550000 15.99940
1599 OM 1599 OM OM1 1599 -0.550000 15.99940
1600 OM 1600 OM OM1 1600 -0.550000 15.99940
1601 OM 1601 OM OM1 1601 -0.550000 15.99940
1602 OM 1602 OM OM1 1602 -0.550000 15.99940
1603 OM 1603 OM OM1 1603 -0.550000 15.99940
1604 OM 1604 OM OM1 1604 -0.550000 15.99940
1605 OM 1605 OM OM1 1605 -0.550000 15.99940
1606 OM 1606 OM OM1 1606 -0.550000 15.99940
1607 OM 1607 OM OM1 1607 -0.550000 15.99940
1608 OM 1608 OM OM1 1608 -0.550000 15.99940
1609 OM 1609 OM OM1 1609 -0.550000 15.99940
1610 OM 1610 OM OM1 1610 -0.550000 15.99940
1611 OM 1611 OM OM1 1611 -0.550000 15.99940
1612 OM 1612 OM OM1 1612 -0.550000 15.99940
1613 OM 1613 OM OM1 1613 -0.550000 15.99940
1614 OM 1614 OM OM1 1614 -0.550000 15.99940
1615 OM 1615 OM OM1 1615 -0.550000 15.99940
1616 OM 1616 OM OM1 1616 -0.550000 15.99940
1617 OM 1617 OM OM1 1617 -0.550000 15.99940
1618 OM 1618 OM OM1 1618 -0.550000 15.99940
1619 OM 1619 OM OM1 1619 -0.550000 15.99940
1620 OM 1620 OM OM1 1620 -0.550000 15.99940
1621 OM 1621 OM OM1 1621 -0.550000 15.99940
1622 OM 1622 OM OM1 1622 -0.550000 15.99940
1623 OM 1623 OM OM1 1623 -0.550000 15.99940
1624 OM 1624 OM OM1 1624 -0.550000 15.99940
1625 OM 1625 OM OM1 1625 -0.550000 15.99940
1626 OM 1626 OM OM1 1626 -0.550000 15.99940
1627 OM 1627 OM OM1 1627 -0.550000 15.99940
1628 OM 1628 OM OM1 1628 -0.550000 15.99940
1629 OM 1629 OM OM1 1629 -0.550000 15.99940
1630 OM 1630 OM OM1 1630 -0.550000 15.99940
1631 OM 1631 OM OM1 1631 -0.550000 15.99940
1632 OM 1632 OM OM1 1632 -0.550000 15.99940
1633 OM 1633 OM OM1 1633 -0.550000 15.99940
1634 OM 1634 OM OM1 1634 -0.550000 15.99940
1635 OM 1635 OM OM1 1635 -0.550000 15.99940
1636 OM 1636 OM OM1 1636 -0.550000 15.99940
1637 OM 1637 OM OM1 1637 -0.550000 15.99940
1638 OM 1638 OM OM1 1638 -0.550000 15.99940
1639 OM 1639 OM OM1 1639 -0.550000 15.99940
1640 OM 1640 OM OM1 1640 -0.550000 15.99940
1641 OM 1641 OM OM1 1641 -0.550000 15.99940
1642 OM 1642 OM OM1 1642 -0.550000 15.99940
1643 OM 1643 OM OM1 1643 -0.550000 15.99940
1644 OM 1644 OM OM1 1644 -0.550000 15.99940
1645 OM 1645 OM OM1 1645 -0.550000 15.99940
1646 OM 1646 OM OM1 1646 -0.550000 15.99940
1647 OM 1647 OM OM1 1647 -0.550000 15.99940
1648 OM 1648 OM OM1 1648 -0.550000 15.99940
1649 OM 1649 OM OM1 1649 -0.550000 15.99940
1650 OM 1650 OM OM1 1650 -0.550000 15.99940
1651 OM 1651 OM OM1 1651 -0.550000 15.99940
1652 OM 1652 OM OM1 1652 -0.550000 15.99940
1653 OM 1653 OM OM1 1653 -0.550000 15.99940
1654 OM 1654 OM OM1 1654 -0.550000 15.99940
1655 OM 1655 OM OM1 1655 -0.550000 15.99940
1656 OM 1656 OM OM1 1656 -0.550000 15.99940
1657 OM 1657 OM OM1 1657 -0.550000 15.99940
1658 OM 1658 OM OM1 1658 -0.550000 15.99940
1659 OM 1659 OM OM1 1659 -0.550000 15.99940
1660 OM 1660 OM OM1 1660 -0.550000 15.99940
1661 OM 1661 OM OM1 1661 -0.550000 15.99940
1662 OM 1662 OM OM1 1662 -0.550000 15.99940
1663 OM 1663 OM OM1 1663 -0.550000 15.99940
1664 OM 1664 OM OM1 1664 -0.550000 15.99940
1665 OM 1665 OM OM1 1665 -0.550000 15.99940
1666 OM 1666 OM OM1 1666 -0.550000 15.99940
1667 OM 1667 OM OM1 1667 -0.550000 15.99940
1668 OM 1668 OM OM1 1668 -0.550000 15.99940
1669 OM 1669 OM OM1 1669 -0.550000 15.99940
1670 OM 1670 OM OM1 1670 -0.550000 15.99940
1671 OM 1671 OM OM1 1671 -0.550000 15.99940
1672 OM 1672 OM OM1 1672 -0.550000 15.99940
1673 OM 1673 OM OM1 1673 -0.550000 15.99940
1674 OM 1674 OM OM1 1674 -0.550000 15.99940
1675 OM 1675 OM OM1 1675 -0.550000 15.99940
1676 OM 1676 OM OM1 1676 -0.550000 15.99940
1677 OM 1677 OM OM1 1677 -0.550000 15.99940
1678 OM 1678 OM OM1 1678 -0.550000 15.99940
1679 OM 1679 OM OM1 1679 -0.550000 15.99940
1680 OM 1680 OM OM1 1680 -0.550000 15.99940
1681 OM 1681 OM OM1 1681 -0.550000 15.99940
1682 OM 1682 OM OM1 1682 -0.550000 15.99940
1683 OM 1683 OM OM1 1683 -0.550000 15.99940
1684 OM 1684 OM OM1 1684 -0.550000 15.99940
1685 OM 1685 OM OM1 1685 -0.550000 15.99940
1686 OM 1686 OM OM1 1686 -0.550000 15.99940
1687 OM 1687 OM OM1 1687 -0.550000 15.99940
1688 OM 1688 OM OM1 1688 -0.550000 15.99940
1689 OM 1689 OM OM1 1689 -0.550000 15.99940
1690 OM 1690 OM OM1 1690 -0.550000 15.99940
1691 OM 1691 OM OM1 1691 -0.550000 15.99940
1692 OM 1692 OM OM1 1692 -0.550000 15.99940
1693 OM 1693 OM OM1 1693 -0.550000 15.99940
1694 OM 1694 OM OM1 1694 -0.550000 15.99940
1695 OM 1695 OM OM1 1695 -0.550000 15.99940
1696 OM 1696 OM OM1 1696 -0.550000 15.99940
1697 OM 1697 OM OM1 1697 -0.550000 15.99940
1698 OM 1698 OM OM1 1698 -0.550000 15.99940
1699 OM 1699 OM OM1 1699 -0.550000 15.99940
1700 OM 1700 OM OM1 1700 -0.550000 15.99940
1701 OM 1701 OM OM1 1701 -0.550000 15.99940
1702 OM 1702 OM OM1 1702 -0.550000 15.99940
1703 OM 1703 OM OM1 1703 -0.550000 15.99940
1704 OM 1704 OM OM1 1704 -0.550000 15.99940
1705 OM 1705 OM OM1 1705 -0.550000 15.99940
1706 OM 1706 OM OM1 1706 -0.550000 15.99940
1707 OM 1707 OM OM1 1707 -0.550000 15.99940
1708 OM 1708 OM OM1 1708 -0.550000 15.99940
1709 OM 1709 OM OM1 1709 -0.550000 15.99940
1710 OM 1710 OM OM1 1710 -0.550000 15.99940
1711 OM 1711 OM OM1 1711 -0.550000 15.99940
1712 OM 1712 OM OM1 1712 -0.550000 15.99940
1713 OM 1713 OM OM1 1713 -0.550000 15.99940
1714 OM 1714 OM OM1 1714 -0.550000 15.99940
1715 OM 1715 OM OM1 1715 -0.550000 15.99940
1716 OM 1716 OM OM1 1716 -0.550000 15.99940
1717 OM 1717 OM OM1 1717 -0.550000 15.99940
1718 OM 1718 OM OM1 1718 -0.550000 15.99940
1719 OM 1719 OM OM1 1719 -0.550000 15.99940
1720 OM 1720 OM OM1 1720 -0.550000 15.99940
1721 OM 1721 OM OM1 1721 -0.550000 15.99940
1722 OM 1722 OM OM1 1722 -0.550000 15.99940
1723 OM 1723 OM OM1 1723 -0.550000 15.99940
1724 OM 1724 OM OM1 1724 -0.550000 15.99940
1725 OM 1725 OM OM1 1725 -0.550000 15.99940
1726 OM 1726 OM OM1 1726 -0.550000 15.99940
1727 OM 1727 OM OM1 1727 -0.550000 15.99940
1728 OM 1728 OM OM1 1728 -0.550000 15.99940
1729 OM 1729 OM OM1 1729 -0.550000 15.99940
1730 OM 1730 OM OM1 1730 -0.550000 15.99940
1731 OM 1731 OM OM1 1731 -0.550000 15.99940
1732 OM 1732 OM OM1 1732 -0.550000 15.99940
1733 OM 1733 OM OM1 1733 -0.550000 15.99940
1734 OM 1734 OM OM1 1734 -0.550000 15.99940
1735 OM 1735 OM OM1 1735 -0.550000 15.99940
1736 OM 1736 OM OM1 1736 -0.550000 15.99940
1737 OM 1737 OM OM1 1737 -0.550000 15.99940
1738 OM 1738 OM OM1 1738 -0.550000 15.99940
1739 OM 1739 OM OM1 1739 -0.550000 15.99940
1740 OM 1740 OM OM1 1740 -0.550000 15.99940
1741 OM 1741 OM OM1 1741 -0.550000 15.99940
1742 OM 1742 OM OM1 1742 -0.550000 15.99940
1743 OM 1743 OM OM1 1743 -0.550000 15.99940
1744 OM 1744 OM OM1 1744 -0.550000 15.99940
1745 OM 1745 OM OM1 1745 -0.550000 15.99940
1746 OM 1746 OM OM1 1746 -0.550000 15.99940
1747 OM 1747 OM OM1 1747 -0.550000 15.99940
1748 OM 1748 OM OM1 1748 -0.550000 15.99940
1749 OM 1749 OM OM1 1749 -0.550000 15.99940
1750 OM 1750 OM OM1 1750 -0.550000 15.99940
1751 OM 1751 OM OM1 1751 -0.550000 15.99940
1752 OM 1752 OM OM1 1752 -0.550000 15.99940
1753 OM 1753 OM OM1 1753 -0.550000 15.99940
1754 OM 1754 OM OM1 1754 -0.550000 15.99940
1755 OM 1755 OM OM1 1755 -0.550000 15.99940
1756 OM 1756 OM OM1 1756 -0.550000 15.99940
1757 OM 1757 OM OM1 1757 -0.550000 15.99940
1758 OM 1758 OM OM1 1758 -0.550000 15.99940
1759 OM 1759 OM OM1 1759 -0.550000 15.99940
1760 OM 1760 OM OM1 1760 -0.550000 15.99940
1761 OM 1761 OM OM1 1761 -0.550000 15.99940
1762 OM 1762 OM OM1 1762 -0.550000 15.99940
1763 OM 1763 OM OM1 1763 -0.550000 15.99940
1764 OM 1764 OM OM1 1764 -0.550000 15.99940
1765 OM 1765 OM OM1 1765 -0.550000 15.99940
1766 OM 1766 OM OM1 1766 -0.550000 15.99940
1767 OM 1767 OM OM1 1767 -0.550000 15.99940
1768 OM 1768 OM OM1 1768 -0.550000 15.99940
1769 OM 1769 OM OM1 1769 -0.550000 15.99940
1770 OM 1770 OM OM1 1770 -0.550000 15.99940
1771 OM 1771 OM OM1 1771 -0.550000 15.99940
1772 OM 1772 OM OM1 1772 -0.550000 15.99940
1773 OM 1773 OM OM1 1773 -0.550000 15.99940
1774 OM 1774 OM OM1 1774 -0.550000 15.99940
1775 OM 1775 OM OM1 1775 -0.550000 15.99940
1776 OM 1776 OM OM1 1776 -0.550000 15.99940
1777 OM 1777 OM OM1 1777 -0.550000 15.99940
1778 OM 1778 OM OM1 1778 -0.550000 15.99940
1779 OM 1779 OM OM1 1779 -0.550000 15.99940
1780 OM 1780 OM OM1 1780 -0.550000 15.99940
1781 OM 1781 OM OM1 1781 -0.550000 15.99940
1782 OM 1782 OM OM1 1782 -0.550000 15.99940
1783 OM 1783 OM OM1 1783 -0.550000 15.99940
1784 OM 1784 OM OM1 1784 -0.550000 15.99940
1785 OM 1785 OM OM1 1785 -0.550000 15.99940
1786 OM 1786 OM OM1 1786 -0.550000 15.99940
1787 OM 1787 OM OM1 1787 -0.550000 15.99940
1788 OM 1788 OM OM1 1788 -0.550000 15.99940
1789 OM 1789 OM OM1 1789 -0.550000 15.99940
1790 OM 1790 OM OM1 1790 -0.550000 15.99940
1791 OM 1791 OM OM1 1791 -0.550000 15.99940
1792 OM 1792 OM OM1 1792 -0.550000 15.99940
1793 OM 1793 OM OM1 1793 -0.550000 15.99940
1794 OM 1794 OM OM1 1794 -0.550000 15.99940
1795 OM 1795 OM OM1 1795 -0.550000 15.99940
1796 OM 1796 OM OM1 1796 -0.550000 15.99940
1797 OM 1797 OM OM1 1797 -0.550000 15.99940
1798 OM 1798 OM OM1 1798 -0.550000 15.99940
1799 OM 1799 OM OM1 1799 -0.550000 15.99940
1800 OM 1800 OM OM1 1800 -0.550000 15.99940
1801 OM 1801 OM OM1 1801 -0.550000 15.99940
1802 OM 1802 OM OM1 1802 -0.550000 15.99940
1803 OM 1803 OM OM1 1803 -0.550000 15.99940
1804 OM 1804 OM OM1 1804 -0.550000 15.99940
1805 OM 1805 OM OM1 1805 -0.550000 15.99940
1806 OM 1806 OM OM1 1806 -0.550000 15.99940
1807 OM 1807 OM OM1 1807 -0.550000 15.99940
1808 OM 1808 OM OM1 1808 -0.550000 15.99940
1809 OM 1809 OM OM1 1809 -0.550000 15.99940
1810 OM 1810 OM OM1 1810 -0.550000 15.99940
1811 OM 1811 OM OM1 1811 -0.550000 15.99940
1812 OM 1812 OM OM1 1812 -0.550000 15.99940
1813 OM 1813 OM OM1 1813 -0.550000 15.99940
1814 OM 1814 OM OM1 1814 -0.550000 15.99940
1815 OM 1815 OM OM1 1815 -0.550000 15.99940
1816 OM 1816 OM OM1 1816 -0.550000 15.99940
1817 OM 1817 OM OM1 1817 -0.550000 15.99940
1818 OM 1818 OM OM1 1818 -0.550000 15.99940
1819 OM 1819 OM OM1 1819 -0.550000 15.99940
1820 OM 1820 OM OM1 1820 -0.550000 15.99940
1821 OM 1821 OM OM1 1821 -0.550000 15.99940
1822 OM 1822 OM OM1 1822 -0.550000 15.99940
1823 OM 1823 OM OM1 1823 -0.550000 15.99940
1824 OM 1824 OM OM1 1824 -0.550000 15.99940
1825 OM 1825 OM OM1 1825 -0.550000 15.99940
1826 OM 1826 OM OM1 1826 -0.550000 15.99940
1827 OM 1827 OM OM1 1827 -0.550000 15.99940
1828 OM 1828 OM OM1 1828 -0.550000 15.99940
1829 OM 1829 OM OM1 1829 -0.550000 15.99940
1830 OM 1830 OM OM1 1830 -0.550000 15.99940
1831 OM 1831 OM OM1 1831 -0.550000 15.99940
1832 OM 1832 OM OM1 1832 -0.550000 15.99940
1833 OM 1833 OM OM1 1833 -0.550000 15.99940
1834 OM 1834 OM OM1 1834 -0.550000 15.99940
1835 OM 1835 OM OM1 1835 -0.550000 15.99940
1836 OM 1836 OM OM1 1836 -0.550000 15.99940
1837 OM 1837 OM OM1 1837 -0.550000 15.99940
1838 OM 1838 OM OM1 1838 -0.550000 15.99940
1839 OM 1839 OM OM1 1839 -0.550000 15.99940
1840 OM 1840 OM OM1 1840 -0.550000 15.99940
1841 OM 1841 OM OM1 1841 -0.550000 15.99940
1842 OM 1842 OM OM1 1842 -0.550000 15.99940
1843 OM 1843 OM OM1 1843 -0.550000 15.99940
1844 OM 1844 OM OM1 1844 -0.550000 15.99940
1845 OM 1845 OM OM1 1845 -0.550000 15.99940
1846 OM 1846 OM OM1 1846 -0.550000 15.99940
1847 OM 1847 OM OM1 1847 -0.550000 15.99940
1848 OM 1848 OM OM1 1848 -0.550000 15.99940
1849 OM 1849 OM OM1 1849 -0.550000 15.99940
1850 OM 1850 OM OM1 1850 -0.550000 15.99940
1851 OM 1851 OM OM1 1851 -0.550000 15.99940
1852 OM 1852 OM OM1 1852 -0.550000 15.99940
1853 OM 1853 OM OM1 1853 -0.550000 15.99940
1854 OM 1854 OM OM1 1854 -0.550000 15.99940
1855 OM 1855 OM OM1 1855 -0.550000 15.99940
1856 OM 1856 OM OM1 1856 -0.550000 15.99940
1857 OM 1857 OM OM1 1857 -0.550000 15.99940
1858 OM 1858 OM OM1 1858 -0.550000 15.99940
1859 OM 1859 OM OM1 1859 -0.550000 15.99940
1860 OM 1860 OM OM1 1860 -0.550000 15.99940
1861 OM 1861 OM OM1 1861 -0.550000 15.99940
1862 OM 1862 OM OM1 1862 -0.550000 15.99940
1863 OM 1863 OM OM1 1863 -0.550000 15.99940
1864 OM 1864 OM OM1 1864 -0.550000 15.99940
1865 OM 1865 OM OM1 1865 -0.550000 15.99940
1866 OM 1866 OM OM1 1866 -0.550000 15.99940
1867 OM 1867 OM OM1 1867 -0.550000 15.99940
1868 OM 1868 OM OM1 1868 -0.550000 15.99940
1869 OM 1869 OM OM1 1869 -0.550000 15.99940
1870 OM 1870 OM OM1 1870 -0.550000 15.99940
1871 OM 1871 OM OM1 1871 -0.550000 15.99940
1872 OM 1872 OM OM1 1872 -0.550000 15.99940
1873 OM 1873 OM OM1 1873 -0.550000 15.99940
1874 OM 1874 OM OM1 1874 -0.550000 15.99940
1875 OM 1875 OM OM1 1875 -0.550000 15.99940
1876 OM 1876 OM OM1 1876 -0.550000 15.99940
1877 OM 1877 OM OM1 1877 -0.550000 15.99940
1878 OM 1878 OM OM1 1878 -0.550000 15.99940
1879 OM 1879 OM OM1 1879 -0.550000 15.99940
1880 OM 1880 OM OM1 1880 -0.550000 15.99940
1881 OM 1881 OM OM1 1881 -0.550000 15.99940
1882 OM 1882 OM OM1 1882 -0.550000 15.99940
1883 OM 1883 OM OM1 1883 -0.550000 15.99940
1884 OM 1884 OM OM1 1884 -0.550000 15.99940
1885 OM 1885 OM OM1 1885 -0.550000 15.99940
1886 OM 1886 OM OM1 1886 -0.550000 15.99940
1887 OM 1887 OM OM1 1887 -0.550000 15.99940
1888 OM 1888 OM OM1 1888 -0.550000 15.99940
1889 OM 1889 OM OM1 1889 -0.550000 15.99940
1890 OM 1890 OM OM1 1890 -0.550000 15.99940
1891 OM 1891 OM OM1 1891 -0.550000 15.99940
1892 OM 1892 OM OM1 1892 -0.550000 15.99940
1893 OM 1893 OM OM1 1893 -0.550000 15.99940
1894 OM 1894 OM OM1 1894 -0.550000 15.99940
1895 OM 1895 OM OM1 1895 -0.550000 15.99940
1896 OM 1896 OM OM1 1896 -0.550000 15.99940
1897 OM 1897 OM OM1 1897 -0.550000 15.99940
1898 OM 1898 OM OM1 1898 -0.550000 15.99940
1899 OM 1899 OM OM1 1899 -0.550000 15.99940
1900 OM 1900 OM OM1 1900 -0.550000 15.99940
1901 OM 1901 OM OM1 1901 -0.550000 15.99940
1902 OM 1902 OM OM1 1902 -0.550000 15.99940
1903 OM 1903 OM OM1 1903 -0.550000 15.99940
1904 OM 1904 OM OM1 1904 -0.550000 15.99940
1905 OM 1905 OM OM1 1905 -0.550000 15.99940
1906 OM 1906 OM OM1 1906 -0.550000 15.99940
1907 OM 1907 OM OM1 1907 -0.550000 15.99940
1908 OM 1908 OM OM1 1908 -0.550000 15.99940
1909 OM 1909 OM OM1 1909 -0.550000 15.99940
1910 OM 1910 OM OM1 1910 -0.550000 15.99940
1911 OM 1911 OM OM1 1911 -0.550000 15.99940
1912 OM 1912 OM OM1 1912 -0.550000 15.99940
1913 OM 1913 OM OM1 1913 -0.550000 15.99940
1914 OM 1914 OM OM1 1914 -0.550000 15.99940
1915 OM 1915 OM OM1 1915 -0.550000 15.99940
1916 OM 1916 OM OM1 1916 -0.550000 15.99940
1917 OM 1917 OM OM1 1917 -0.550000 15.99940
1918 OM 1918 OM OM1 1918 -0.550000 15.99940
1919 OM 1919 OM OM1 1919 -0.550000 15.99940
1920 OM 1920 OM OM1 1920 -0.550000 15.99940
1921 OM 1921 OM OM1 1921 -0.550000 15.99940
1922 OM 1922 OM OM1 1922 -0.550000 15.99940
1923 OM 1923 OM OM1 1923 -0.550000 15.99940
1924 OM 1924 OM OM1 1924 -0.550000 15.99940
1925 OM 1925 OM OM1 1925 -0.550000 15.99940
1926 OM 1926 OM OM1 1926 -0.550000 15.99940
1927 OM 1927 OM OM1 1927 -0.550000 15.99940
1928 OM 1928 OM OM1 1928 -0.550000 15.99940
1929 OM 1929 OM OM1 1929 -0.550000 15.99940
1930 OM 1930 OM OM1 1930 -0.550000 15.99940
1931 OM 1931 OM OM1 1931 -0.550000 15.99940
1932 OM 1932 OM OM1 1932 -0.550000 15.99940
1933 OM 1933 OM OM1 1933 -0.550000 15.99940
1934 OM 1934 OM OM1 1934 -0.550000 15.99940
1935 OM 1935 OM OM1 1935 -0.550000 15.99940
1936 OM 1936 OM OM1 1936 -0.550000 15.99940
1937 OM 1937 OM OM1 1937 -0.550000 15.99940
1938 OM 1938 OM OM1 1938 -0.550000 15.99940
1939 OM 1939 OM OM1 1939 -0.550000 15.99940
1940 OM 1940 OM OM1 1940 -0.550000 15.99940
1941 OM 1941 OM OM1 1941 -0.550000 15.99940
1942 OM 1942 OM OM1 1942 -0.550000 15.99940
1943 OM 1943 OM OM1 1943 -0.550000 15.99940
1944 OM 1944 OM OM1 1944 -0.550000 15.99940
1945 OM 1945 OM OM1 1945 -0.550000 15.99940
1946 OM 1946 OM OM1 1946 -0.550000 15.99940
1947 OM 1947 OM OM1 1947 -0.550000 15.99940
1948 OM 1948 OM OM1 1948 -0.550000 15.99940
1949 OM 1949 OM OM1 1949 -0.550000 15.99940
1950 OM 1950 OM OM1 1950 -0.550000 15.99940
1951 OM 1951 OM OM1 1951 -0.550000 15.99940
1952 OM 1952 OM OM1 1952 -0.550000 15.99940
1953 OM 1953 OM OM1 1953 -0.550000 15.99940
1954 OM 1954 OM OM1 1954 -0.550000 15.99940
1955 OM 1955 OM OM1 1955 -0.550000 15.99940
1956 OM 1956 OM OM1 1956 -0.550000 15.99940
1957 OM 1957 OM OM1 1957 -0.550000 15.99940
1958 OM 1958 OM OM1 1958 -0.550000 15.99940
1959 OM 1959 OM OM1 1959 -0.550000 15.99940
1960 OM 1960 OM OM1 1960 -0.550000 15.99940
1961 OM 1961 OM OM1 1961 -0.550000 15.99940
1962 OM 1962 OM OM1 1962 -0.550000 15.99940
1963 OM 1963 OM OM1 1963 -0.550000 15.99940
1964 OM 1964 OM OM1 1964 -0.550000 15.99940
1965 OM 1965 OM OM1 1965 -0.550000 15.99940
1966 OM 1966 OM OM1 1966 -0.550000 15.99940
1967 OM 1967 OM OM1 1967 -0.550000 15.99940
1968 OM 1968 OM OM1 1968 -0.550000 15.99940
1969 OM 1969 OM OM1 1969 -0.550000 15.99940
1970 OM 1970 OM OM1 1970 -0.550000 15.99940
1971 OM 1971 OM OM1 1971 -0.550000 15.99940
1972 OM 1972 OM OM1 1972 -0.550000 15.99940
1973 OM 1973 OM OM1 1973 -0.550000 15.99940
1974 OM 1974 OM OM1 1974 -0.550000 15.99940
1975 OM 1975 OM OM1 1975 -0.550000 15.99940
1976 OM 1976 OM OM1 1976 -0.550000 15.99940
1977 OM 1977 OM OM1 1977 -0.550000 15.99940
1978 OM 1978 OM OM1 1978 -0.550000 15.99940
1979 OM 1979 OM OM1 1979 -0.550000 15.99940
1980 OM 1980 OM OM1 1980 -0.550000 15.99940
1981 OM 1981 OM OM1 1981 -0.550000 15.99940
1982 OM 1982 OM OM1 1982 -0.550000 15.99940
1983 OM 1983 OM OM1 1983 -0.550000 15.99940
1984 OM 1984 OM OM1 1984 -0.550000 15.99940
1985 OM 1985 OM OM1 1985 -0.550000 15.99940
1986 OM 1986 OM OM1 1986 -0.550000 15.99940
1987 OM 1987 OM OM1 1987 -0.550000 15.99940
1988 OM 1988 OM OM1 1988 -0.550000 15.99940
1989 OM 1989 OM OM1 1989 -0.550000 15.99940
1990 OM 1990 OM OM1 1990 -0.550000 15.99940
1991 OM 1991 OM OM1 1991 -0.550000 15.99940
1992 OM 1992 OM OM1 1992 -0.550000 15.99940
1993 OM 1993 OM OM1 1993 -0.550000 15.99940
1994 OM 1994 OM OM1 1994 -0.550000 15.99940
1995 OM 1995 OM OM1 1995 -0.550000 15.99940
1996 OM 1996 OM OM1 1996 -0.550000 15.99940
1997 OM 1997 OM OM1 1997 -0.550000 15.99940
1998 OM 1998 OM OM1 1998 -0.550000 15.99940
1999 OM 1999 OM OM1 1999 -0.550000 15.99940
2000 OM 2000 OM OM1 2000 -0.550000 15.99940
2001 OM 2001 OM OM1 2001 -0.550000 15.99940
2002 OM 2002 OM OM1 2002 -0.550000 15.99940
2003 OM 2003 OM OM1 2003 -0.550000 15.99940
2004 OM 2004 OM OM1 2004 -0.550000 15.99940
2005 OM 2005 OM OM1 2005 -0.550000 15.99940
2006 OM 2006 OM OM1 2006 -0.550000 15.99940
2007 OM 2007 OM OM1 2007 -0.550000 15.99940
2008 OM 2008 OM OM1 2008 -0.550000 15.99940
2009 OM 2009 OM OM1 2009 -0.550000 15.99940
2010 OM 2010 OM OM1 2010 -0.550000 15.99940
2011 OM 2011 OM OM1 2011 -0.550000 15.99940
2012 OM 2012 OM OM1 2012 -0.550000 15.99940
2013 OM 2013 OM OM1 2013 -0.550000 15.99940
2014 OM 2014 OM OM1 2014 -0.550000 15.99940
2015 OM 2015 OM OM1 2015 -0.550000 15.99940
2016 OM 2016 OM OM1 2016 -0.550000 15.99940
2017 OM 2017 OM OM1 2017 -0.550000 15.99940
2018 OM 2018 OM OM1 2018 -0.550000 15.99940
2019 OM 2019 OM OM1 2019 -0.550000 15.99940
2020 OM 2020 OM OM1 2020 -0.550000 15.99940
2021 OM 2021 OM OM1 2021 -0.550000 15.99940
2022 OM 2022 OM OM1 2022 -0.550000 15.99940
2023 OM 2023 OM OM1 2023 -0.550000 15.99940
2024 OM 2024 OM OM1 2024 -0.550000 15.99940
2025 OM 2025 OM OM1 2025 -0.550000 15.99940
2026 OM 2026 OM OM1 2026 -0.550000 15.99940
2027 OM 2027 OM OM1 2027 -0.550000 15.99940
2028 OM 2028 OM OM1 2028 -0.550000 15.99940
2029 OM 2029 OM OM1 2029 -0.550000 15.99940
2030 OM 2030 OM OM1 2030 -0.550000 15.99940
2031 OM 2031 OM OM1 2031 -0.550000 15.99940
2032 OM 2032 OM OM1 2032 -0.550000 15.99940
2033 OM 2033 OM OM1 2033 -0.550000 15.99940
2034 OM 2034 OM OM1 2034 -0.550000 15.99940
2035 OM 2035 OM OM1 2035 -0.550000 15.99940
2036 OM 2036 OM OM1 2036 -0.550000 15.99940
2037 OM 2037 OM OM1 2037 -0.550000 15.99940
2038 OM 2038 OM OM1 2038 -0.550000 15.99940
2039 OM 2039 OM OM1 2039 -0.550000 15.99940
2040 OM 2040 OM OM1 2040 -0.550000 15.99940
2041 OM 2041 OM OM1 2041 -0.550000 15.99940
2042 OM 2042 OM OM1 2042 -0.550000 15.99940
2043 OM 2043 OM OM1 2043 -0.550000 15.99940
2044 OM 2044 OM OM1 2044 -0.550000 15.99940
2045 OM 2045 OM OM1 2045 -0.550000 15.99940
2046 OM 2046 OM OM1 2046 -0.550000 15.99940
2047 OM 2047 OM OM1 2047 -0.550000 15.99940
2048 OM 2048 OM OM1 2048 -0.550000 15.99940
2049 OM 2049 OM OM1 2049 -0.550000 15.99940
2050 OM 2050 OM OM1 2050 -0.550000 15.99940
2051 OM 2051 OM OM1 2051 -0.550000 15.99940
2052 OM 2052 OM OM1 2052 -0.550000 15.99940
2053 OM 2053 OM OM1 2053 -0.550000 15.99940
2054 OM 2054 OM OM1 2054 -0.550000 15.99940
2055 OM 2055 OM OM1 2055 -0.550000 15.99940
2056 OM 2056 OM OM1 2056 -0.550000 15.99940
2057 OM 2057 OM OM1 2057 -0.550000 15.99940
2058 OM 2058 OM OM1 2058 -0.550000 15.99940
2059 OM 2059 OM OM1 2059 -0.550000 15.99940
2060 OM 2060 OM OM1 2060 -0.550000 15.99940
2061 OM 2061 OM OM1 2061 -0.550000 15.99940
2062 OM 2062 OM OM1 2062 -0.550000 15.99940
2063 OM 2063 OM OM1 2063 -0.550000 15.99940
2064 OM 2064 OM OM1 2064 -0.550000 15.99940
2065 OM 2065 OM OM1 2065 -0.550000 15.99940
2066 OM 2066 OM OM1 2066 -0.550000 15.99940
2067 OM 2067 OM OM1 2067 -0.550000 15.99940
2068 OM 2068 OM OM1 2068 -0.550000 15.99940
2069 OM 2069 OM OM1 2069 -0.550000 15.99940
2070 OM 2070 OM OM1 2070 -0.550000 15.99940
2071 OM 2071 OM OM1 2071 -0.550000 15.99940
2072 OM 2072 OM OM1 2072 -0.550000 15.99940
2073 OM 2073 OM OM1 2073 -0.550000 15.99940
2074 OM 2074 OM OM1 2074 -0.550000 15.99940
2075 OM 2075 OM OM1 2075 -0.550000 15.99940
2076 OM 2076 OM OM1 2076 -0.550000 15.99940
2077 OM 2077 OM OM1 2077 -0.550000 15.99940
2078 OM 2078 OM OM1 2078 -0.550000 15.99940
2079 OM 2079 OM OM1 2079 -0.550000 15.99940
2080 OM 2080 OM OM1 2080 -0.550000 15.99940
2081 OM 2081 OM OM1 2081 -0.550000 15.99940
2082 OM 2082 OM OM1 2082 -0.550000 15.99940
2083 OM 2083 OM OM1 2083 -0.550000 15.99940
2084 OM 2084 OM OM1 2084 -0.550000 15.99940
2085 OM 2085 OM OM1 2085 -0.550000 15.99940
2086 OM 2086 OM OM1 2086 -0.550000 15.99940
2087 OM 2087 OM OM1 2087 -0.550000 15.99940
2088 OM 2088 OM OM1 2088 -0.550000 15.99940
2089 OM 2089 OM OM1 2089 -0.550000 15.99940
2090 OM 2090 OM OM1 2090 -0.550000 15.99940
2091 OM 2091 OM OM1 2091 -0.550000 15.99940
2092 OM 2092 OM OM1 2092 -0.550000 15.99940
2093 OM 2093 OM OM1 2093 -0.550000 15.99940
2094 OM 2094 OM OM1 2094 -0.550000 15.99940
2095 OM 2095 OM OM1 2095 -0.550000 15.99940
2096 OM 2096 OM OM1 2096 -0.550000 15.99940
2097 OM 2097 OM OM1 2097 -0.550000 15.99940
2098 OM 2098 OM OM1 2098 -0.550000 15.99940
2099 OM 2099 OM OM1 2099 -0.550000 15.99940
2100 OM 2100 OM OM1 2100 -0.550000 15.99940
2101 OM 2101 OM OM1 2101 -0.550000 15.99940
2102 OM 2102 OM OM1 2102 -0.550000 15.99940
2103 OM 2103 OM OM1 2103 -0.550000 15.99940
2104 OM 2104 OM OM1 2104 -0.550000 15.99940
2105 OM 2105 OM OM1 2105 -0.550000 15.99940
2106 OM 2106 OM OM1 2106 -0.550000 15.99940
2107 OM 2107 OM OM1 2107 -0.550000 15.99940
2108 OM 2108 OM OM1 2108 -0.550000 15.99940
2109 OM 2109 OM OM1 2109 -0.550000 15.99940
2110 OM 2110 OM OM1 2110 -0.550000 15.99940
2111 OM 2111 OM OM1 2111 -0.550000 15.99940
2112 OM 2112 OM OM1 2112 -0.550000 15.99940
2113 OM 2113 OM OM1 2113 -0.550000 15.99940
2114 OM 2114 OM OM1 2114 -0.550000 15.99940
2115 OM 2115 OM OM1 2115 -0.550000 15.99940
2116 OM 2116 OM OM1 2116 -0.550000 15.99940
2117 OM 2117 OM OM1 2117 -0.550000 15.99940
2118 OM 2118 OM OM1 2118 -0.550000 15.99940
2119 OM 2119 OM OM1 2119 -0.550000 15.99940
2120 OM 2120 OM OM1 2120 -0.550000 15.99940
2121 OM 2121 OM OM1 2121 -0.550000 15.99940
2122 OM 2122 OM OM1 2122 -0.550000 15.99940
2123 OM 2123 OM OM1 2123 -0.550000 15.99940
2124 OM 2124 OM OM1 2124 -0.550000 15.99940
2125 OM 2125 OM OM1 2125 -0.550000 15.99940
2126 OM 2126 OM OM1 2126 -0.550000 15.99940
2127 OM 2127 OM OM1 2127 -0.550000 15.99940
2128 OM 2128 OM OM1 2128 -0.550000 15.99940
2129 OM 2129 OM OM1 2129 -0.550000 15.99940
2130 OM 2130 OM OM1 2130 -0.550000 15.99940
2131 OM 2131 OM OM1 2131 -0.550000 15.99940
2132 OM 2132 OM OM1 2132 -0.550000 15.99940
2133 OM 2133 OM OM1 2133 -0.550000 15.99940
2134 OM 2134 OM OM1 2134 -0.550000 15.99940
2135 OM 2135 OM OM1 2135 -0.550000 15.99940
2136 OM 2136 OM OM1 2136 -0.550000 15.99940
2137 OM 2137 OM OM1 2137 -0.550000 15.99940
2138 OM 2138 OM OM1 2138 -0.550000 15.99940
2139 OM 2139 OM OM1 2139 -0.550000 15.99940
2140 OM 2140 OM OM1 2140 -0.550000 15.99940
2141 OM 2141 OM OM1 2141 -0.550000 15.99940
2142 OM 2142 OM OM1 2142 -0.550000 15.99940
2143 OM 2143 OM OM1 2143 -0.550000 15.99940
2144 OM 2144 OM OM1 2144 -0.550000 15.99940
2145 OM 2145 OM OM1 2145 -0.550000 15.99940
2146 OM 2146 OM OM1 2146 -0.550000 15.99940
2147 OM 2147 OM OM1 2147 -0.550000 15.99940
2148 OM 2148 OM OM1 2148 -0.550000 15.99940
2149 OM 2149 OM OM1 2149 -0.550000 15.99940
2150 OM 2150 OM OM1 2150 -0.550000 15.99940
2151 OM 2151 OM OM1 2151 -0.550000 15.99940
2152 OM 2152 OM OM1 2152 -0.550000 15.99940
2153 OM 2153 OM OM1 2153 -0.550000 15.99940
2154 OM 2154 OM OM1 2154 -0.550000 15.99940
2155 OM 2155 OM OM1 2155 -0.550000 15.99940
2156 OM 2156 OM OM1 2156 -0.550000 15.99940
2157 OM 2157 OM OM1 2157 -0.550000 15.99940
2158 OM 2158 OM OM1 2158 -0.550000 15.99940
2159 OM 2159 OM OM1 2159 -0.550000 15.99940
2160 OM 2160 OM OM1 2160 -0.550000 15.99940
2161 OM 2161 OM OM1 2161 -0.550000 15.99940
2162 OM 2162 OM OM1 2162 -0.550000 15.99940
2163 OM 2163 OM OM1 2163 -0.550000 15.99940
2164 OM 2164 OM OM1 2164 -0.550000 15.99940
2165 OM 2165 OM OM1 2165 -0.550000 15.99940
2166 OM 2166 OM OM1 2166 -0.550000 15.99940
2167 OM 2167 OM OM1 2167 -0.550000 15.99940
2168 OM 2168 OM OM1 2168 -0.550000 15.99940
2169 OM 2169 OM OM1 2169 -0.550000 15.99940
2170 OM 2170 OM OM1 2170 -0.550000 15.99940
2171 OM 2171 OM OM1 2171 -0.550000 15.99940
2172 OM 2172 OM OM1 2172 -0.550000 15.99940
2173 OM 2173 OM OM1 2173 -0.550000 15.99940
2174 OM 2174 OM OM1 2174 -0.550000 15.99940
2175 OM 2175 OM OM1 2175 -0.550000 15.99940
2176 OM 2176 OM OM1 2176 -0.550000 15.99940
2177 OM 2177 OM OM1 2177 -0.550000 15.99940
2178 OM 2178 OM OM1 2178 -0.550000 15.99940
2179 OM 2179 OM OM1 2179 -0.550000 15.99940
2180 OM 2180 OM OM1 2180 -0.550000 15.99940
2181 OM 2181 OM OM1 2181 -0.550000 15.99940
2182 OM 2182 OM OM1 2182 -0.550000 15.99940
2183 OM 2183 OM OM1 2183 -0.550000 15.99940
2184 OM 2184 OM OM1 2184 -0.550000 15.99940
2185 OM 2185 OM OM1 2185 -0.550000 15.99940
2186 OM 2186 OM OM1 2186 -0.550000 15.99940
2187 OM 2187 OM OM1 2187 -0.550000 15.99940
2188 OM 2188 OM OM1 2188 -0.550000 15.99940
2189 OM 2189 OM OM1 2189 -0.550000 15.99940
2190 OM 2190 OM OM1 2190 -0.550000 15.99940
2191 OM 2191 OM OM1 2191 -0.550000 15.99940
2192 OM 2192 OM OM1 2192 -0.550000 15.99940
2193 OM 2193 OM OM1 2193 -0.550000 15.99940
2194 OM 2194 OM OM1 2194 -0.550000 15.99940
2195 OM 2195 OM OM1 2195 -0.550000 15.99940
2196 OM 2196 OM OM1 2196 -0.550000 15.99940
2197 OM 2197 OM OM1 2197 -0.550000 15.99940
2198 OM 2198 OM OM1 2198 -0.550000 15.99940
2199 OM 2199 OM OM1 2199 -0.550000 15.99940
2200 OM 2200 OM OM1 2200 -0.550000 15.99940
2201 OM 2201 OM OM1 2201 -0.550000 15.99940
2202 OM 2202 OM OM1 2202 -0.550000 15.99940
2203 OM 2203 OM OM1 2203 -0.550000 15.99940
2204 OM 2204 OM OM1 2204 -0.550000 15.99940
2205 OM 2205 OM OM1 2205 -0.550000 15.99940
2206 OM 2206 OM OM1 2206 -0.550000 15.99940
2207 OM 2207 OM OM1 2207 -0.550000 15.99940
2208 OM 2208 OM OM1 2208 -0.550000 15.99940
2209 OM 2209 OM OM1 2209 -0.550000 15.99940
2210 OM 2210 OM OM1 2210 -0.550000 15.99940
2211 OM 2211 OM OM1 2211 -0.550000 15.99940
2212 OM 2212 OM OM1 2212 -0.550000 15.99940
2213 OM 2213 OM OM1 2213 -0.550000 15.99940
2214 OM 2214 OM OM1 2214 -0.550000 15.99940
2215 OM 2215 OM OM1 2215 -0.550000 15.99940
2216 OM 2216 OM OM1 2216 -0.550000 15.99940
2217 OM 2217 OM OM1 2217 -0.550000 15.99940
2218 OM 2218 OM OM1 2218 -0.550000 15.99940
2219 OM 2219 OM OM1 2219 -0.550000 15.99940
2220 OM 2220 OM OM1 2220 -0.550000 15.99940
2221 OM 2221 OM OM1 2221 -0.550000 15.99940
2222 OM 2222 OM OM1 2222 -0.550000 15.99940
2223 OM 2223 OM OM1 2223 -0.550000 15.99940
2224 OM 2224 OM OM1 2224 -0.550000 15.99940
2225 OM 2225 OM OM1 2225 -0.550000 15.99940
2226 OM 2226 OM OM1 2226 -0.550000 15.99940
2227 OM 2227 OM OM1 2227 -0.550000 15.99940
2228 OM 2228 OM OM1 2228 -0.550000 15.99940
2229 OM 2229 OM OM1 2229 -0.550000 15.99940
2230 OM 2230 OM OM1 2230 -0.550000 15.99940
2231 OM 2231 OM OM1 2231 -0.550000 15.99940
2232 OM 2232 OM OM1 2232 -0.550000 15.99940
2233 OM 2233 OM OM1 2233 -0.550000 15.99940
2234 OM 2234 OM OM1 2234 -0.550000 15.99940
2235 OM 2235 OM OM1 2235 -0.550000 15.99940
2236 OM 2236 OM OM1 2236 -0.550000 15.99940
2237 OM 2237 OM OM1 2237 -0.550000 15.99940
2238 OM 2238 OM OM1 2238 -0.550000 15.99940
2239 OM 2239 OM OM1 2239 -0.550000 15.99940
2240 OM 2240 OM OM1 2240 -0.550000 15.99940
2241 OM 2241 OM OM1 2241 -0.550000 15.99940
2242 OM 2242 OM OM1 2242 -0.550000 15.99940
2243 OM 2243 OM OM1 2243 -0.550000 15.99940
2244 OM 2244 OM OM1 2244 -0.550000 15.99940
2245 OM 2245 OM OM1 2245 -0.550000 15.99940
2246 OM 2246 OM OM1 2246 -0.550000 15.99940
2247 OM 2247 OM OM1 2247 -0.550000 15.99940
2248 OM 2248 OM OM1 2248 -0.550000 15.99940
2249 OM 2249 OM OM1 2249 -0.550000 15.99940
2250 OM 2250 OM OM1 2250 -0.550000 15.99940
2251 OM 2251 OM OM1 2251 -0.550000 15.99940
2252 OM 2252 OM OM1 2252 -0.550000 15.99940
2253 OM 2253 OM OM1 2253 -0.550000 15.99940
2254 OM 2254 OM OM1 2254 -0.550000 15.99940
2255 OM 2255 OM OM1 2255 -0.550000 15.99940
2256 OM 2256 OM OM1 2256 -0.550000 15.99940
2257 OM 2257 OM OM1 2257 -0.550000 15.99940
2258 OM 2258 OM OM1 2258 -0.550000 15.99940
2259 OM 2259 OM OM1 2259 -0.550000 15.99940
2260 OM 2260 OM OM1 2260 -0.550000 15.99940
2261 OM 2261 OM OM1 2261 -0.550000 15.99940
2262 OM 2262 OM OM1 2262 -0.550000 15.99940
2263 OM 2263 OM OM1 2263 -0.550000 15.99940
2264 OM 2264 OM OM1 2264 -0.550000 15.99940
2265 OM 2265 OM OM1 2265 -0.550000 15.99940
2266 OM 2266 OM OM1 2266 -0.550000 15.99940
2267 OM 2267 OM OM1 2267 -0.550000 15.99940
2268 OM 2268 OM OM1 2268 -0.550000 15.99940
2269 OM 2269 OM OM1 2269 -0.550000 15.99940
2270 OM 2270 OM OM1 2270 -0.550000 15.99940
2271 OM 2271 OM OM1 2271 -0.550000 15.99940
2272 OM 2272 OM OM1 2272 -0.550000 15.99940
2273 OM 2273 OM OM1 2273 -0.550000 15.99940
2274 OM 2274 OM OM1 2274 -0.550000 15.99940
2275 OM 2275 OM OM1 2275 -0.550000 15.99940
2276 OM 2276 OM OM1 2276 -0.550000 15.99940
2277 OM 2277 OM OM1 2277 -0.550000 15.99940
2278 OM 2278 OM OM1 2278 -0.550000 15.99940
2279 OM 2279 OM OM1 2279 -0.550000 15.99940
2280 OM 2280 OM OM1 2280 -0.550000 15.99940
2281 OM 2281 OM OM1 2281 -0.550000 15.99940
2282 OM 2282 OM OM1 2282 -0.550000 15.99940
2283 OM 2283 OM OM1 2283 -0.550000 15.99940
2284 OM 2284 OM OM1 2284 -0.550000 15.99940
2285 OM 2285 OM OM1 2285 -0.550000 15.99940
2286 OM 2286 OM OM1 2286 -0.550000 15.99940
2287 OM 2287 OM OM1 2287 -0.550000 15.99940
2288 OM 2288 OM OM1 2288 -0.550000 15.99940
2289 OM 2289 OM OM1 2289 -0.550000 15.99940
2290 OM 2290 OM OM1 2290 -0.550000 15.99940
2291 OM 2291 OM OM1 2291 -0.550000 15.99940
2292 OM 2292 OM OM1 2292 -0.550000 15.99940
2293 OM 2293 OM OM1 2293 -0.550000 15.99940
2294 OM 2294 OM OM1 2294 -0.550000 15.99940
2295 OM 2295 OM OM1 2295 -0.550000 15.99940
2296 OM 2296 OM OM1 2296 -0.550000 15.99940
2297 OM 2297 OM OM1 2297 -0.550000 15.99940
2298 OM 2298 OM OM1 2298 -0.550000 15.99940
2299 OM 2299 OM OM1 2299 -0.550000 15.99940
2300 OM 2300 OM OM1 2300 -0.550000 15.99940
2301 OM 2301 OM OM1 2301 -0.550000 15.99940
2302 OM 2302 OM OM1 2302 -0.550000 15.99940
2303 OM 2303 OM OM1 2303 -0.550000 15.99940
2304 OM 2304 OM OM1 2304 -0.550000 15.99940
2305 OM 2305 OM OM1 2305 -0.550000 15.99940
2306 OM 2306 OM OM1 2306 -0.550000 15.99940
2307 OM 2307 OM OM1 2307 -0.550000 15.99940
2308 OM 2308 OM OM1 2308 -0.550000 15.99940
2309 OM 2309 OM OM1 2309 -0.550000 15.99940
2310 OM 2310 OM OM1 2310 -0.550000 15.99940
2311 OM 2311 OM OM1 2311 -0.550000 15.99940
2312 OM 2312 OM OM1 2312 -0.550000 15.99940
2313 OM 2313 OM OM1 2313 -0.550000 15.99940
2314 OM 2314 OM OM1 2314 -0.550000 15.99940
2315 OM 2315 OM OM1 2315 -0.550000 15.99940
2316 OM 2316 OM OM1 2316 -0.550000 15.99940
2317 OM 2317 OM OM1 2317 -0.550000 15.99940
2318 OM 2318 OM OM1 2318 -0.550000 15.99940
2319 OM 2319 OM OM1 2319 -0.550000 15.99940
2320 OM 2320 OM OM1 2320 -0.550000 15.99940
2321 OM 2321 OM OM1 2321 -0.550000 15.99940
2322 OM 2322 OM OM1 2322 -0.550000 15.99940
2323 OM 2323 OM OM1 2323 -0.550000 15.99940
2324 OM 2324 OM OM1 2324 -0.550000 15.99940
2325 OM 2325 OM OM1 2325 -0.550000 15.99940
2326 OM 2326 OM OM1 2326 -0.550000 15.99940
2327 OM 2327 OM OM1 2327 -0.550000 15.99940
2328 OM 2328 OM OM1 2328 -0.550000 15.99940
2329 OM 2329 OM OM1 2329 -0.550000 15.99940
2330 OM 2330 OM OM1 2330 -0.550000 15.99940
2331 OM 2331 OM OM1 2331 -0.550000 15.99940
2332 OM 2332 OM OM1 2332 -0.550000 15.99940
2333 OM 2333 OM OM1 2333 -0.550000 15.99940
2334 OM 2334 OM OM1 2334 -0.550000 15.99940
2335 OM 2335 OM OM1 2335 -0.550000 15.99940
2336 OM 2336 OM OM1 2336 -0.550000 15.99940
2337 OM 2337 OM OM1 2337 -0.550000 15.99940
2338 OM 2338 OM OM1 2338 -0.550000 15.99940
2339 OM 2339 OM OM1 2339 -0.550000 15.99940
2340 OM 2340 OM OM1 2340 -0.550000 15.99940
2341 OM 2341 OM OM1 2341 -0.550000 15.99940
2342 OM 2342 OM OM1 2342 -0.550000 15.99940
2343 OM 2343 OM OM1 2343 -0.550000 15.99940
2344 OM 2344 OM OM1 2344 -0.550000 15.99940
2345 OM 2345 OM OM1 2345 -0.550000 15.99940
2346 OM 2346 OM OM1 2346 -0.550000 15.99940
2347 OM 2347 OM OM1 2347 -0.550000 15.99940
2348 OM 2348 OM OM1 2348 -0.550000 15.99940
2349 OM 2349 OM OM1 2349 -0.550000 15.99940
2350 OM 2350 OM OM1 2350 -0.550000 15.99940
2351 OM 2351 OM OM1 2351 -0.550000 15.99940
2352 OM 2352 OM OM1 2352 -0.550000 15.99940
2353 OM 2353 OM OM1 2353 -0.550000 15.99940
2354 OM 2354 OM OM1 2354 -0.550000 15.99940
2355 OM 2355 OM OM1 2355 -0.550000 15.99940
2356 OM 2356 OM OM1 2356 -0.550000 15.99940
2357 OM 2357 OM OM1 2357 -0.550000 15.99940
2358 OM 2358 OM OM1 2358 -0.550000 15.99940
2359 OM 2359 OM OM1 2359 -0.550000 15.99940
2360 OM 2360 OM OM1 2360 -0.550000 15.99940
2361 OM 2361 OM OM1 2361 -0.550000 15.99940
2362 OM 2362 OM OM1 2362 -0.550000 15.99940
2363 OM 2363 OM OM1 2363 -0.550000 15.99940
2364 OM 2364 OM OM1 2364 -0.550000 15.99940
2365 OM 2365 OM OM1 2365 -0.550000 15.99940
2366 OM 2366 OM OM1 2366 -0.550000 15.99940
2367 OM 2367 OM OM1 2367 -0.550000 15.99940
2368 OM 2368 OM OM1 2368 -0.550000 15.99940
2369 OM 2369 OM OM1 2369 -0.550000 15.99940
2370 OM 2370 OM OM1 2370 -0.550000 15.99940
2371 OM 2371 OM OM1 2371 -0.550000 15.99940
2372 OM 2372 OM OM1 2372 -0.550000 15.99940
2373 OM 2373 OM OM1 2373 -0.550000 15.99940
2374 OM 2374 OM OM1 2374 -0.550000 15.99940
2375 OM 2375 OM OM1 2375 -0.550000 15.99940
2376 OM 2376 OM OM1 2376 -0.550000 15.99940
2377 OM 2377 OM OM1 2377 -0.550000 15.99940
2378 OM 2378 OM OM1 2378 -0.550000 15.99940
2379 OM 2379 OM OM1 2379 -0.550000 15.99940
2380 OM 2380 OM OM1 2380 -0.550000 15.99940
2381 OM 2381 OM OM1 2381 -0.550000 15.99940
2382 OM 2382 OM OM1 2382 -0.550000 15.99940
2383 OM 2383 OM OM1 2383 -0.550000 15.99940
2384 OM 2384 OM OM1 2384 -0.550000 15.99940
2385 OM 2385 OM OM1 2385 -0.550000 15.99940
2386 OM 2386 OM OM1 2386 -0.550000 15.99940
2387 OM 2387 OM OM1 2387 -0.550000 15.99940
2388 OM 2388 OM OM1 2388 -0.550000 15.99940
2389 OM 2389 OM OM1 2389 -0.550000 15.99940
2390 OM 2390 OM OM1 2390 -0.550000 15.99940
2391 OM 2391 OM OM1 2391 -0.550000 15.99940
2392 OM 2392 OM OM1 2392 -0.550000 15.99940
2393 OM 2393 OM OM1 2393 -0.550000 15.99940
2394 OM 2394 OM OM1 2394 -0.550000 15.99940
2395 OM 2395 OM OM1 2395 -0.550000 15.99940
2396 OM 2396 OM OM1 2396 -0.550000 15.99940
2397 OM 2397 OM OM1 2397 -0.550000 15.99940
2398 OM 2398 OM OM1 2398 -0.550000 15.99940
2399 OM 2399 OM OM1 2399 -0.550000 15.99940
2400 OM 2400 OM OM1 2400 -0.550000 15.99940
2401 OM 2401 OM OM1 2401 -0.550000 15.99940
2402 OM 2402 OM OM1 2402 -0.550000 15.99940
2403 OM 2403 OM OM1 2403 -0.550000 15.99940
2404 OM 2404 OM OM1 2404 -0.550000 15.99940
2405 OM 2405 OM OM1 2405 -0.550000 15.99940
2406 OM 2406 OM OM1 2406 -0.550000 15.99940
2407 OM 2407 OM OM1 2407 -0.550000 15.99940
2408 OM 2408 OM OM1 2408 -0.550000 15.99940
2409 OM 2409 OM OM1 2409 -0.550000 15.99940
2410 OM 2410 OM OM1 2410 -0.550000 15.99940
2411 OM 2411 OM OM1 2411 -0.550000 15.99940
2412 OM 2412 OM OM1 2412 -0.550000 15.99940
2413 OM 2413 OM OM1 2413 -0.550000 15.99940
2414 OM 2414 OM OM1 2414 -0.550000 15.99940
2415 OM 2415 OM OM1 2415 -0.550000 15.99940
2416 OM 2416 OM OM1 2416 -0.550000 15.99940
2417 OM 2417 OM OM1 2417 -0.550000 15.99940
2418 OM 2418 OM OM1 2418 -0.550000 15.99940
2419 OM 2419 OM OM1 2419 -0.550000 15.99940
2420 OM 2420 OM OM1 2420 -0.550000 15.99940
2421 OM 2421 OM OM1 2421 -0.550000 15.99940
2422 OM 2422 OM OM1 2422 -0.550000 15.99940
2423 OM 2423 OM OM1 2423 -0.550000 15.99940
2424 OM 2424 OM OM1 2424 -0.550000 15.99940
2425 OM 2425 OM OM1 2425 -0.550000 15.99940
2426 OM 2426 OM OM1 2426 -0.550000 15.99940
2427 OM 2427 OM OM1 2427 -0.550000 15.99940
2428 OM 2428 OM OM1 2428 -0.550000 15.99940
2429 OM 2429 OM OM1 2429 -0.550000 15.99940
2430 OM 2430 OM OM1 2430 -0.550000 15.99940
2431 OM 2431 OM OM1 2431 -0.550000 15.99940
2432 OM 2432 OM OM1 2432 -0.550000 15.99940
2433 OM 2433 OM OM1 2433 -0.550000 15.99940
2434 OM 2434 OM OM1 2434 -0.550000 15.99940
2435 OM 2435 OM OM1 2435 -0.550000 15.99940
2436 OM 2436 OM OM1 2436 -0.550000 15.99940
2437 OM 2437 OM OM1 2437 -0.550000 15.99940
2438 OM 2438 OM OM1 2438 -0.550000 15.99940
2439 OM 2439 OM OM1 2439 -0.550000 15.99940
2440 OM 2440 OM OM1 2440 -0.550000 15.99940
2441 OM 2441 OM OM1 2441 -0.550000 15.99940
2442 OM 2442 OM OM1 2442 -0.550000 15.99940
2443 OM 2443 OM OM1 2443 -0.550000 15.99940
2444 OM 2444 OM OM1 2444 -0.550000 15.99940
2445 OM 2445 OM OM1 2445 -0.550000 15.99940
2446 OM 2446 OM OM1 2446 -0.550000 15.99940
2447 OM 2447 OM OM1 2447 -0.550000 15.99940
2448 OM 2448 OM OM1 2448 -0.550000 15.99940
2449 OM 2449 OM OM1 2449 -0.550000 15.99940
2450 OM 2450 OM OM1 2450 -0.550000 15.99940
2451 OM 2451 OM OM1 2451 -0.550000 15.99940
2452 OM 2452 OM OM1 2452 -0.550000 15.99940
2453 OM 2453 OM OM1 2453 -0.550000 15.99940
2454 OM 2454 OM OM1 2454 -0.550000 15.99940
2455 OM 2455 OM OM1 2455 -0.550000 15.99940
2456 OM 2456 OM OM1 2456 -0.550000 15.99940
2457 OM 2457 OM OM1 2457 -0.550000 15.99940
2458 OM 2458 OM OM1 2458 -0.550000 15.99940
2459 OM 2459 OM OM1 2459 -0.550000 15.99940
2460 OM 2460 OM OM1 2460 -0.550000 15.99940
2461 OM 2461 OM OM1 2461 -0.550000 15.99940
2462 OM 2462 OM OM1 2462 -0.550000 15.99940
2463 OM 2463 OM OM1 2463 -0.550000 15.99940
2464 OM 2464 OM OM1 2464 -0.550000 15.99940
2465 OM 2465 OM OM1 2465 -0.550000 15.99940
2466 OM 2466 OM OM1 2466 -0.550000 15.99940
2467 OM 2467 OM OM1 2467 -0.550000 15.99940
2468 OM 2468 OM OM1 2468 -0.550000 15.99940
2469 OM 2469 OM OM1 2469 -0.550000 15.99940
2470 OM 2470 OM OM1 2470 -0.550000 15.99940
2471 OM 2471 OM OM1 2471 -0.550000 15.99940
2472 OM 2472 OM OM1 2472 -0.550000 15.99940
2473 OM 2473 OM OM1 2473 -0.550000 15.99940
2474 OM 2474 OM OM1 2474 -0.550000 15.99940
2475 OM 2475 OM OM1 2475 -0.550000 15.99940
2476 OM 2476 OM OM1 2476 -0.550000 15.99940
2477 OM 2477 OM OM1 2477 -0.550000 15.99940
2478 OM 2478 OM OM1 2478 -0.550000 15.99940
2479 OM 2479 OM OM1 2479 -0.550000 15.99940
2480 OM 2480 OM OM1 2480 -0.550000 15.99940
2481 OM 2481 OM OM1 2481 -0.550000 15.99940
2482 OM 2482 OM OM1 2482 -0.550000 15.99940
2483 OM 2483 OM OM1 2483 -0.550000 15.99940
2484 OM 2484 OM OM1 2484 -0.550000 15.99940
2485 OM 2485 OM OM1 2485 -0.550000 15.99940
2486 OM 2486 OM OM1 2486 -0.550000 15.99940
2487 OM 2487 OM OM1 2487 -0.550000 15.99940
2488 OM 2488 OM OM1 2488 -0.550000 15.99940
2489 OM 2489 OM OM1 2489 -0.550000 15.99940
2490 OM 2490 OM OM1 2490 -0.550000 15.99940
2491 OM 2491 OM OM1 2491 -0.550000 15.99940
2492 OM 2492 OM OM1 2492 -0.550000 15.99940
2493 OM 2493 OM OM1 2493 -0.550000 15.99940
2494 OM 2494 OM OM1 2494 -0.550000 15.99940
2495 OM 2495 OM OM1 2495 -0.550000 15.99940
2496 OM 2496 OM OM1 2496 -0.550000 15.99940
2497 OM 2497 OM OM1 2497 -0.550000 15.99940
2498 OM 2498 OM OM1 2498 -0.550000 15.99940
2499 OM 2499 OM OM1 2499 -0.550000 15.99940
2500 OM 2500 OM OM1 2500 -0.550000 15.99940
2501 OM 2501 OM OM1 2501 -0.550000 15.99940
2502 OM 2502 OM OM1 2502 -0.550000 15.99940
2503 OM 2503 OM OM1 2503 -0.550000 15.99940
2504 OM 2504 OM OM1 2504 -0.550000 15.99940
2505 OM 2505 OM OM1 2505 -0.550000 15.99940
2506 OM 2506 OM OM1 2506 -0.550000 15.99940
2507 OM 2507 OM OM1 2507 -0.550000 15.99940
2508 OM 2508 OM OM1 2508 -0.550000 15.99940
2509 OM 2509 OM OM1 2509 -0.550000 15.99940
2510 OM 2510 OM OM1 2510 -0.550000 15.99940
2511 OM 2511 OM OM1 2511 -0.550000 15.99940
2512 OM 2512 OM OM1 2512 -0.550000 15.99940
2513 OM 2513 OM OM1 2513 -0.550000 15.99940
2514 OM 2514 OM OM1 2514 -0.550000 15.99940
2515 OM 2515 OM OM1 2515 -0.550000 15.99940
2516 OM 2516 OM OM1 2516 -0.550000 15.99940
2517 OM 2517 OM OM1 2517 -0.550000 15.99940
2518 OM 2518 OM OM1 2518 -0.550000 15.99940
2519 OM 2519 OM OM1 2519 -0.550000 15.99940
2520 OM 2520 OM OM1 2520 -0.550000 15.99940
2521 OM 2521 OM OM1 2521 -0.550000 15.99940
2522 OM 2522 OM OM1 2522 -0.550000 15.99940
2523 OM 2523 OM OM1 2523 -0.550000 15.99940
2524 OM 2524 OM OM1 2524 -0.550000 15.99940
2525 OM 2525 OM OM1 2525 -0.550000 15.99940
2526 OM 2526 OM OM1 2526 -0.550000 15.99940
2527 OM 2527 OM OM1 2527 -0.550000 15.99940
2528 OM 2528 OM OM1 2528 -0.550000 15.99940
2529 OM 2529 OM OM1 2529 -0.550000 15.99940
2530 OM 2530 OM OM1 2530 -0.550000 15.99940
2531 OM 2531 OM OM1 2531 -0.550000 15.99940
2532 OM 2532 OM OM1 2532 -0.550000 15.99940
2533 OM 2533 OM OM1 2533 -0.550000 15.99940
2534 OM 2534 OM OM1 2534 -0.550000 15.99940
2535 OM 2535 OM OM1 2535 -0.550000 15.99940
2536 OM 2536 OM OM1 2536 -0.550000 15.99940
2537 OM 2537 OM OM1 2537 -0.550000 15.99940
2538 OM 2538 OM OM1 2538 -0.550000 15.99940
2539 OM 2539 OM OM1 2539 -0.550000 15.99940
2540 OM 2540 OM OM1 2540 -0.550000 15.99940
2541 OM 2541 OM OM1 2541 -0.550000 15.99940
2542 OM 2542 OM OM1 2542 -0.550000 15.99940
2543 OM 2543 OM OM1 2543 -0.550000 15.99940
2544 OM 2544 OM OM1 2544 -0.550000 15.99940
2545 OM 2545 OM OM1 2545 -0.550000 15.99940
2546 OM 2546 OM OM1 2546 -0.550000 15.99940
2547 OM 2547 OM OM1 2547 -0.550000 15.99940
2548 OM 2548 OM OM1 2548 -0.550000 15.99940
2549 OM 2549 OM OM1 2549 -0.550000 15.99940
2550 OM 2550 OM OM1 2550 -0.550000 15.99940
2551 OM 2551 OM OM1 2551 -0.550000 15.99940
2552 OM 2552 OM OM1 2552 -0.550000 15.99940
2553 OM 2553 OM OM1 2553 -0.550000 15.99940
2554 OM 2554 OM OM1 2554 -0.550000 15.99940
2555 OM 2555 OM OM1 2555 -0.550000 15.99940
2556 OM 2556 OM OM1 2556 -0.550000 15.99940
2557 OM 2557 OM OM1 2557 -0.550000 15.99940
2558 OM 2558 OM OM1 2558 -0.550000 15.99940
2559 OM 2559 OM OM1 2559 -0.550000 15.99940
2560 OM 2560 OM OM1 2560 -0.550000 15.99940
2561 OM 2561 OM OM1 2561 -0.550000 15.99940
2562 OM 2562 OM OM1 2562 -0.550000 15.99940
2563 OM 2563 OM OM1 2563 -0.550000 15.99940
2564 OM 2564 OM OM1 2564 -0.550000 15.99940
2565 OM 2565 OM OM1 2565 -0.550000 15.99940
2566 OM 2566 OM OM1 2566 -0.550000 15.99940
2567 OM 2567 OM OM1 2567 -0.550000 15.99940
2568 OM 2568 OM OM1 2568 -0.550000 15.99940
2569 OM 2569 OM OM1 2569 -0.550000 15.99940
2570 OM 2570 OM OM1 2570 -0.550000 15.99940
2571 OM 2571 OM OM1 2571 -0.550000 15.99940
2572 OM 2572 OM OM1 2572 -0.550000 15.99940
2573 OM 2573 OM OM1 2573 -0.550000 15.99940
2574 OM 2574 OM OM1 2574 -0.550000 15.99940
2575 OM 2575 OM OM1 2575 -0.550000 15.99940
2576 OM 2576 OM OM1 2576 -0.550000 15.99940
2577 OM 2577 OM OM1 2577 -0.550000 15.99940
2578 OM 2578 OM OM1 2578 -0.550000 15.99940
2579 OM 2579 OM OM1 2579 -0.550000 15.99940
2580 OM 2580 OM OM1 2580 -0.550000 15.99940
2581 OM 2581 OM OM1 2581 -0.550000 15.99940
2582 OM 2582 OM OM1 2582 -0.550000 15.99940
2583 OM 2583 OM OM1 2583 -0.550000 15.99940
2584 OM 2584 OM OM1 2584 -0.550000 15.99940
2585 OM 2585 OM OM1 2585 -0.550000 15.99940
2586 OM 2586 OM OM1 2586 -0.550000 15.99940
2587 OM 2587 OM OM1 2587 -0.550000 15.99940
2588 OM 2588 OM OM1 2588 -0.550000 15.99940
2589 OM 2589 OM OM1 2589 -0.550000 15.99940
2590 OM 2590 OM OM1 2590 -0.550000 15.99940
2591 OM 2591 OM OM1 2591 -0.550000 15.99940
2592 OM 2592 OM OM1 2592 -0.550000 15.99940
2593 OM 2593 OM OM1 2593 -0.550000 15.99940
2594 OM 2594 OM OM1 2594 -0.550000 15.99940
2595 OM 2595 OM OM1 2595 -0.550000 15.99940
2596 OM 2596 OM OM1 2596 -0.550000 15.99940
2597 OM 2597 OM OM1 2597 -0.550000 15.99940
2598 OM 2598 OM OM1 2598 -0.550000 15.99940
2599 OM 2599 OM OM1 2599 -0.550000 15.99940
2600 OM 2600 OM OM1 2600 -0.550000 15.99940
2601 OM 2601 OM OM1 2601 -0.550000 15.99940
2602 OM 2602 OM OM1 2602 -0.550000 15.99940
2603 OM 2603 OM OM1 2603 -0.550000 15.99940
2604 OM 2604 OM OM1 2604 -0.550000 15.99940
2605 OM 2605 OM OM1 2605 -0.550000 15.99940
2606 OM 2606 OM OM1 2606 -0.550000 15.99940
2607 OM 2607 OM OM1 2607 -0.550000 15.99940
2608 OM 2608 OM OM1 2608 -0.550000 15.99940
2609 OM 2609 OM OM1 2609 -0.550000 15.99940
2610 OM 2610 OM OM1 2610 -0.550000 15.99940
2611 OM 2611 OM OM1 2611 -0.550000 15.99940
2612 OM 2612 OM OM1 2612 -0.550000 15.99940
2613 OM 2613 OM OM1 2613 -0.550000 15.99940
2614 OM 2614 OM OM1 2614 -0.550000 15.99940
2615 OM 2615 OM OM1 2615 -0.550000 15.99940
2616 OM 2616 OM OM1 2616 -0.550000 15.99940
2617 OM 2617 OM OM1 2617 -0.550000 15.99940
2618 OM 2618 OM OM1 2618 -0.550000 15.99940
2619 OM 2619 OM OM1 2619 -0.550000 15.99940
2620 OM 2620 OM OM1 2620 -0.550000 15.99940
2621 OM 2621 OM OM1 2621 -0.550000 15.99940
2622 OM 2622 OM OM1 2622 -0.550000 15.99940
2623 OM 2623 OM OM1 2623 -0.550000 15.99940
2624 OM 2624 OM OM1 2624 -0.550000 15.99940
2625 OM 2625 OM OM1 2625 -0.550000 15.99940
2626 OM 2626 OM OM1 2626 -0.550000 15.99940
2627 OM 2627 OM OM1 2627 -0.550000 15.99940
2628 OM 2628 OM OM1 2628 -0.550000 15.99940
2629 OM 2629 OM OM1 2629 -0.550000 15.99940
2630 OM 2630 OM OM1 2630 -0.550000 15.99940
2631 OM 2631 OM OM1 2631 -0.550000 15.99940
2632 OM 2632 OM OM1 2632 -0.550000 15.99940
2633 OM 2633 OM OM1 2633 -0.550000 15.99940
2634 OM 2634 OM OM1 2634 -0.550000 15.99940
2635 OM 2635 OM OM1 2635 -0.550000 15.99940
2636 OM 2636 OM OM1 2636 -0.550000 15.99940
2637 OM 2637 OM OM1 2637 -0.550000 15.99940
2638 OM 2638 OM OM1 2638 -0.550000 15.99940
2639 OM 2639 OM OM1 2639 -0.550000 15.99940
2640 OM 2640 OM OM1 2640 -0.550000 15.99940
2641 OM 2641 OM OM1 2641 -0.550000 15.99940
2642 OM 2642 OM OM1 2642 -0.550000 15.99940
2643 OM 2643 OM OM1 2643 -0.550000 15.99940
2644 OM 2644 OM OM1 2644 -0.550000 15.99940
2645 OM 2645 OM OM1 2645 -0.550000 15.99940
2646 OM 2646 OM OM1 2646 -0.550000 15.99940
2647 OM 2647 OM OM1 2647 -0.550000 15.99940
2648 OM 2648 OM OM1 2648 -0.550000 15.99940
2649 OM 2649 OM OM1 2649 -0.550000 15.99940
2650 OM 2650 OM OM1 2650 -0.550000 15.99940
2651 OM 2651 OM OM1 2651 -0.550000 15.99940
2652 OM 2652 OM OM1 2652 -0.550000 15.99940
2653 OM 2653 OM OM1 2653 -0.550000 15.99940
2654 OM 2654 OM OM1 2654 -0.550000 15.99940
2655 OM 2655 OM OM1 2655 -0.550000 15.99940
2656 OM 2656 OM OM1 2656 -0.550000 15.99940
2657 OM 2657 OM OM1 2657 -0.550000 15.99940
2658 OM 2658 OM OM1 2658 -0.550000 15.99940
2659 OM 2659 OM OM1 2659 -0.550000 15.99940
2660 OM 2660 OM OM1 2660 -0.550000 15.99940
2661 OM 2661 OM OM1 2661 -0.550000 15.99940
2662 OM 2662 OM OM1 2662 -0.550000 15.99940
2663 OM 2663 OM OM1 2663 -0.550000 15.99940
2664 OM 2664 OM OM1 2664 -0.550000 15.99940
2665 OM 2665 OM OM1 2665 -0.550000 15.99940
2666 OM 2666 OM OM1 2666 -0.550000 15.99940
2667 OM 2667 OM OM1 2667 -0.550000 15.99940
2668 OM 2668 OM OM1 2668 -0.550000 15.99940
2669 OM 2669 OM OM1 2669 -0.550000 15.99940
2670 OM 2670 OM OM1 2670 -0.550000 15.99940
2671 OM 2671 OM OM1 2671 -0.550000 15.99940
2672 OM 2672 OM OM1 2672 -0.550000 15.99940
2673 OM 2673 OM OM1 2673 -0.550000 15.99940
2674 OM 2674 OM OM1 2674 -0.550000 15.99940
2675 OM 2675 OM OM1 2675 -0.550000 15.99940
2676 OM 2676 OM OM1 2676 -0.550000 15.99940
2677 OM 2677 OM OM1 2677 -0.550000 15.99940
2678 OM 2678 OM OM1 2678 -0.550000 15.99940
2679 OM 2679 OM OM1 2679 -0.550000 15.99940
2680 OM 2680 OM OM1 2680 -0.550000 15.99940
2681 OM 2681 OM OM1 2681 -0.550000 15.99940
2682 OM 2682 OM OM1 2682 -0.550000 15.99940
2683 OM 2683 OM OM1 2683 -0.550000 15.99940
2684 OM 2684 OM OM1 2684 -0.550000 15.99940
2685 OM 2685 OM OM1 2685 -0.550000 15.99940
2686 OM 2686 OM OM1 2686 -0.550000 15.99940
2687 OM 2687 OM OM1 2687 -0.550000 15.99940
2688 OM 2688 OM OM1 2688 -0.550000 15.99940
2689 OM 2689 OM OM1 2689 -0.550000 15.99940
2690 OM 2690 OM OM1 2690 -0.550000 15.99940
2691 OM 2691 OM OM1 2691 -0.550000 15.99940
2692 OM 2692 OM OM1 2692 -0.550000 15.99940
2693 OM 2693 OM OM1 2693 -0.550000 15.99940
2694 OM 2694 OM OM1 2694 -0.550000 15.99940
2695 OM 2695 OM OM1 2695 -0.550000 15.99940
2696 OM 2696 OM OM1 2696 -0.550000 15.99940
2697 OM 2697 OM OM1 2697 -0.550000 15.99940
2698 OM 2698 OM OM1 2698 -0.550000 15.99940
2699 OM 2699 OM OM1 2699 -0.550000 15.99940
2700 OM 2700 OM OM1 2700 -0.550000 15.99940
2701 OM 2701 OM OM1 2701 -0.550000 15.99940
2702 OM 2702 OM OM1 2702 -0.550000 15.99940
2703 OM 2703 OM OM1 2703 -0.550000 15.99940
2704 OM 2704 OM OM1 2704 -0.550000 15.99940
2705 OM 2705 OM OM1 2705 -0.550000 15.99940
2706 OM 2706 OM OM1 2706 -0.550000 15.99940
2707 OM 2707 OM OM1 2707 -0.550000 15.99940
2708 OM 2708 OM OM1 2708 -0.550000 15.99940
2709 OM 2709 OM OM1 2709 -0.550000 15.99940
2710 OM 2710 OM OM1 2710 -0.550000 15.99940
2711 OM 2711 OM OM1 2711 -0.550000 15.99940
2712 OM 2712 OM OM1 2712 -0.550000 15.99940
2713 OM 2713 OM OM1 2713 -0.550000 15.99940
2714 OM 2714 OM OM1 2714 -0.550000 15.99940
2715 OM 2715 OM OM1 2715 -0.550000 15.99940
2716 OM 2716 OM OM1 2716 -0.550000 15.99940
2717 OM 2717 OM OM1 2717 -0.550000 15.99940
2718 OM 2718 OM OM1 2718 -0.550000 15.99940
2719 OM 2719 OM OM1 2719 -0.550000 15.99940
2720 OM 2720 OM OM1 2720 -0.550000 15.99940
2721 OM 2721 OM OM1 2721 -0.550000 15.99940
2722 OM 2722 OM OM1 2722 -0.550000 15.99940
2723 OM 2723 OM OM1 2723 -0.550000 15.99940
2724 OM 2724 OM OM1 2724 -0.550000 15.99940
2725 OM 2725 OM OM1 2725 -0.550000 15.99940
2726 OM 2726 OM OM1 2726 -0.550000 15.99940
2727 OM 2727 OM OM1 2727 -0.550000 15.99940
2728 OM 2728 OM OM1 2728 -0.550000 15.99940
2729 OM 2729 OM OM1 2729 -0.550000 15.99940
2730 OM 2730 OM OM1 2730 -0.550000 15.99940
2731 OM 2731 OM OM1 2731 -0.550000 15.99940
2732 OM 2732 OM OM1 2732 -0.550000 15.99940
2733 OM 2733 OM OM1 2733 -0.550000 15.99940
2734 OM 2734 OM OM1 2734 -0.550000 15.99940
2735 OM 2735 OM OM1 2735 -0.550000 15.99940
2736 OM 2736 OM OM1 2736 -0.550000 15.99940
2737 OM 2737 OM OM1 2737 -0.550000 15.99940
2738 OM 2738 OM OM1 2738 -0.550000 15.99940
2739 OM 2739 OM OM1 2739 -0.550000 15.99940
2740 OM 2740 OM OM1 2740 -0.550000 15.99940
2741 OM 2741 OM OM1 2741 -0.550000 15.99940
2742 OM 2742 OM OM1 2742 -0.550000 15.99940
2743 OM 2743 OM OM1 2743 -0.550000 15.99940
2744 OM 2744 OM OM1 2744 -0.550000 15.99940
2745 OM 2745 OM OM1 2745 -0.550000 15.99940
2746 OM 2746 OM OM1 2746 -0.550000 15.99940
2747 OM 2747 OM OM1 2747 -0.550000 15.99940
2748 OM 2748 OM OM1 2748 -0.550000 15.99940
2749 OM 2749 OM OM1 2749 -0.550000 15.99940
2750 OM 2750 OM OM1 2750 -0.550000 15.99940
2751 OM 2751 OM OM1 2751 -0.550000 15.99940
2752 OM 2752 OM OM1 2752 -0.550000 15.99940
2753 OM 2753 OM OM1 2753 -0.550000 15.99940
2754 OM 2754 OM OM1 2754 -0.550000 15.99940
2755 OM 2755 OM OM1 2755 -0.550000 15.99940
2756 OM 2756 OM OM1 2756 -0.550000 15.99940
2757 OM 2757 OM OM1 2757 -0.550000 15.99940
2758 OM 2758 OM OM1 2758 -0.550000 15.99940
2759 OM 2759 OM OM1 2759 -0.550000 15.99940
2760 OM 2760 OM OM1 2760 -0.550000 15.99940
2761 OM 2761 OM OM1 2761 -0.550000 15.99940
2762 OM 2762 OM OM1 2762 -0.550000 15.99940
2763 OM 2763 OM OM1 2763 -0.550000 15.99940
2764 OM 2764 OM OM1 2764 -0.550000 15.99940
2765 OM 2765 OM OM1 2765 -0.550000 15.99940
2766 OM 2766 OM OM1 2766 -0.550000 15.99940
2767 OM 2767 OM OM1 2767 -0.550000 15.99940
2768 OM 2768 OM OM1 2768 -0.550000 15.99940
2769 OM 2769 OM OM1 2769 -0.550000 15.99940
2770 OM 2770 OM OM1 2770 -0.550000 15.99940
2771 OM 2771 OM OM1 2771 -0.550000 15.99940
2772 OM 2772 OM OM1 2772 -0.550000 15.99940
2773 OM 2773 OM OM1 2773 -0.550000 15.99940
2774 OM 2774 OM OM1 2774 -0.550000 15.99940
2775 OM 2775 OM OM1 2775 -0.550000 15.99940
2776 OM 2776 OM OM1 2776 -0.550000 15.99940
2777 OM 2777 OM OM1 2777 -0.550000 15.99940
2778 OM 2778 OM OM1 2778 -0.550000 15.99940
2779 OM 2779 OM OM1 2779 -0.550000 15.99940
2780 OM 2780 OM OM1 2780 -0.550000 15.99940
2781 OM 2781 OM OM1 2781 -0.550000 15.99940
2782 OM 2782 OM OM1 2782 -0.550000 15.99940
2783 OM 2783 OM OM1 2783 -0.550000 15.99940
2784 OM 2784 OM OM1 2784 -0.550000 15.99940
2785 OM 2785 OM OM1 2785 -0.550000 15.99940
2786 OM 2786 OM OM1 2786 -0.550000 15.99940
2787 OM 2787 OM OM1 2787 -0.550000 15.99940
2788 OM 2788 OM OM1 2788 -0.550000 15.99940
2789 OM 2789 OM OM1 2789 -0.550000 15.99940
2790 OM 2790 OM OM1 2790 -0.550000 15.99940
2791 OM 2791 OM OM1 2791 -0.550000 15.99940
2792 OM 2792 OM OM1 2792 -0.550000 15.99940
2793 OM 2793 OM OM1 2793 -0.550000 15.99940
2794 OM 2794 OM OM1 2794 -0.550000 15.99940
2795 OM 2795 OM OM1 2795 -0.550000 15.99940
2796 OM 2796 OM OM1 2796 -0.550000 15.99940
2797 OM 2797 OM OM1 2797 -0.550000 15.99940
2798 OM 2798 OM OM1 2798 -0.550000 15.99940
2799 OM 2799 OM OM1 2799 -0.550000 15.99940
2800 OM 2800 OM OM1 2800 -0.550000 15.99940
2801 OM 2801 OM OM1 2801 -0.550000 15.99940
2802 OM 2802 OM OM1 2802 -0.550000 15.99940
2803 OM 2803 OM OM1 2803 -0.550000 15.99940
2804 OM 2804 OM OM1 2804 -0.550000 15.99940
2805 OM 2805 OM OM1 2805 -0.550000 15.99940
2806 OM 2806 OM OM1 2806 -0.550000 15.99940
2807 OM 2807 OM OM1 2807 -0.550000 15.99940
2808 OM 2808 OM OM1 2808 -0.550000 15.99940
2809 OM 2809 OM OM1 2809 -0.550000 15.99940
2810 OM 2810 OM OM1 2810 -0.550000 15.99940
2811 OM 2811 OM OM1 2811 -0.550000 15.99940
2812 OM 2812 OM OM1 2812 -0.550000 15.99940
2813 OM 2813 OM OM1 2813 -0.550000 15.99940
2814 OM 2814 OM OM1 2814 -0.550000 15.99940
2815 OM 2815 OM OM1 2815 -0.550000 15.99940
2816 OM 2816 OM OM1 2816 -0.550000 15.99940
2817 OM 2817 OM OM1 2817 -0.550000 15.99940
2818 OM 2818 OM OM1 2818 -0.550000 15.99940
2819 OM 2819 OM OM1 2819 -0.550000 15.99940
2820 OM 2820 OM OM1 2820 -0.550000 15.99940
2821 OM 2821 OM OM1 2821 -0.550000 15.99940
2822 OM 2822 OM OM1 2822 -0.550000 15.99940
2823 OM 2823 OM OM1 2823 -0.550000 15.99940
2824 OM 2824 OM OM1 2824 -0.550000 15.99940
2825 OM 2825 OM OM1 2825 -0.550000 15.99940
2826 OM 2826 OM OM1 2826 -0.550000 15.99940
2827 OM 2827 OM OM1 2827 -0.550000 15.99940
2828 OM 2828 OM OM1 2828 -0.550000 15.99940
2829 OM 2829 OM OM1 2829 -0.550000 15.99940
2830 OM 2830 OM OM1 2830 -0.550000 15.99940
2831 OM 2831 OM OM1 2831 -0.550000 15.99940
2832 OM 2832 OM OM1 2832 -0.550000 15.99940
2833 OM 2833 OM OM1 2833 -0.550000 15.99940
2834 OM 2834 OM OM1 2834 -0.550000 15.99940
2835 OM 2835 OM OM1 2835 -0.550000 15.99940
2836 OM 2836 OM OM1 2836 -0.550000 15.99940
2837 OM 2837 OM OM1 2837 -0.550000 15.99940
2838 OM 2838 OM OM1 2838 -0.550000 15.99940
2839 OM 2839 OM OM1 2839 -0.550000 15.99940
2840 OM 2840 OM OM1 2840 -0.550000 15.99940
2841 OM 2841 OM OM1 2841 -0.550000 15.99940
2842 OM 2842 OM OM1 2842 -0.550000 15.99940
2843 OM 2843 OM OM1 2843 -0.550000 15.99940
2844 OM 2844 OM OM1 2844 -0.550000 15.99940
2845 OM 2845 OM OM1 2845 -0.550000 15.99940
2846 OM 2846 OM OM1 2846 -0.550000 15.99940
2847 OM 2847 OM OM1 2847 -0.550000 15.99940
2848 OM 2848 OM OM1 2848 -0.550000 15.99940
2849 OM 2849 OM OM1 2849 -0.550000 15.99940
2850 OM 2850 OM OM1 2850 -0.550000 15.99940
2851 OM 2851 OM OM1 2851 -0.550000 15.99940
2852 OM 2852 OM OM1 2852 -0.550000 15.99940
2853 OM 2853 OM OM1 2853 -0.550000 15.99940
2854 OM 2854 OM OM1 2854 -0.550000 15.99940
2855 OM 2855 OM OM1 2855 -0.550000 15.99940
2856 OM 2856 OM OM1 2856 -0.550000 15.99940
2857 OM 2857 OM OM1 2857 -0.550000 15.99940
2858 OM 2858 OM OM1 2858 -0.550000 15.99940
2859 OM 2859 OM OM1 2859 -0.550000 15.99940
2860 OM 2860 OM OM1 2860 -0.550000 15.99940
2861 OM 2861 OM OM1 2861 -0.550000 15.99940
2862 OM 2862 OM OM1 2862 -0.550000 15.99940
2863 OM 2863 OM OM1 2863 -0.550000 15.99940
2864 OM 2864 OM OM1 2864 -0.550000 15.99940
2865 OM 2865 OM OM1 2865 -0.550000 15.99940
2866 OM 2866 OM OM1 2866 -0.550000 15.99940
2867 OM 2867 OM OM1 2867 -0.550000 15.99940
2868 OM 2868 OM OM1 2868 -0.550000 15.99940
2869 OM 2869 OM OM1 2869 -0.550000 15.99940
2870 OM 2870 OM OM1 2870 -0.550000 15.99940
2871 OM 2871 OM OM1 2871 -0.550000 15.99940
2872 OM 2872 OM OM1 2872 -0.550000 15.99940
2873 OM 2873 OM OM1 2873 -0.550000 15.99940
2874 OM 2874 OM OM1 2874 -0.550000 15.99940
2875 OM 2875 OM OM1 2875 -0.550000 15.99940
2876 OM 2876 OM OM1 2876 -0.550000 15.99940
2877 OM 2877 OM OM1 2877 -0.550000 15.99940
2878 OM 2878 OM OM1 2878 -0.550000 15.99940
2879 OM 2879 OM OM1 2879 -0.550000 15.99940
2880 OM 2880 OM OM1 2880 -0.550000 15.99940
2881 OM 2881 OM OM1 2881 -0.550000 15.99940
2882 OM 2882 OM OM1 2882 -0.550000 15.99940
2883 OM 2883 OM OM1 2883 -0.550000 15.99940
2884 OM 2884 OM OM1 2884 -0.550000 15.99940
2885 OM 2885 OM OM1 2885 -0.550000 15.99940
2886 OM 2886 OM OM1 2886 -0.550000 15.99940
2887 OM 2887 OM OM1 2887 -0.550000 15.99940
2888 OM 2888 OM OM1 2888 -0.550000 15.99940
2889 OM 2889 OM OM1 2889 -0.550000 15.99940
2890 OM 2890 OM OM1 2890 -0.550000 15.99940
2891 OM 2891 OM OM1 2891 -0.550000 15.99940
2892 OM 2892 OM OM1 2892 -0.550000 15.99940
2893 OM 2893 OM OM1 2893 -0.550000 15.99940
2894 OM 2894 OM OM1 2894 -0.550000 15.99940
2895 OM 2895 OM OM1 2895 -0.550000 15.99940
2896 OM 2896 OM OM1 2896 -0.550000 15.99940
2897 OM 2897 OM OM1 2897 -0.550000 15.99940
2898 OM 2898 OM OM1 2898 -0.550000 15.99940
2899 OM 2899 OM OM1 2899 -0.550000 15.99940
2900 OM 2900 OM OM1 2900 -0.550000 15.99940
2901 OM 2901 OM OM1 2901 -0.550000 15.99940
2902 OM 2902 OM OM1 2902 -0.550000 15.99940
2903 OM 2903 OM OM1 2903 -0.550000 15.99940
2904 OM 2904 OM OM1 2904 -0.550000 15.99940
2905 OM 2905 OM OM1 2905 -0.550000 15.99940
2906 OM 2906 OM OM1 2906 -0.550000 15.99940
2907 OM 2907 OM OM1 2907 -0.550000 15.99940
2908 OM 2908 OM OM1 2908 -0.550000 15.99940
2909 OM 2909 OM OM1 2909 -0.550000 15.99940
2910 OM 2910 OM OM1 2910 -0.550000 15.99940
2911 OM 2911 OM OM1 2911 -0.550000 15.99940
2912 OM 2912 OM OM1 2912 -0.550000 15.99940
2913 OM 2913 OM OM1 2913 -0.550000 15.99940
2914 OM 2914 OM OM1 2914 -0.550000 15.99940
2915 OM 2915 OM OM1 2915 -0.550000 15.99940
2916 OM 2916 OM OM1 2916 -0.550000 15.99940
2917 OM 2917 OM OM1 2917 -0.550000 15.99940
2918 OM 2918 OM OM1 2918 -0.550000 15.99940
2919 OM 2919 OM OM1 2919 -0.550000 15.99940
2920 OM 2920 OM OM1 2920 -0.550000 15.99940
2921 OM 2921 OM OM1 2921 -0.550000 15.99940
2922 OM 2922 OM OM1 2922 -0.550000 15.99940
2923 OM 2923 OM OM1 2923 -0.550000 15.99940
2924 OM 2924 OM OM1 2924 -0.550000 15.99940
2925 OM 2925 OM OM1 2925 -0.550000 15.99940
2926 OM 2926 OM OM1 2926 -0.550000 15.99940
2927 OM 2927 OM OM1 2927 -0.550000 15.99940
2928 OM 2928 OM OM1 2928 -0.550000 15.99940
2929 OM 2929 OM OM1 2929 -0.550000 15.99940
2930 OM 2930 OM OM1 2930 -0.550000 15.99940
2931 OM 2931 OM OM1 2931 -0.550000 15.99940
2932 OM 2932 OM OM1 2932 -0.550000 15.99940
2933 OM 2933 OM OM1 2933 -0.550000 15.99940
2934 OM 2934 OM OM1 2934 -0.550000 15.99940
2935 OM 2935 OM OM1 2935 -0.550000 15.99940
2936 OM 2936 OM OM1 2936 -0.550000 15.99940
2937 OM 2937 OM OM1 2937 -0.550000 15.99940
2938 OM 2938 OM OM1 2938 -0.550000 15.99940
2939 OM 2939 OM OM1 2939 -0.550000 15.99940
2940 OM 2940 OM OM1 2940 -0.550000 15.99940
2941 OM 2941 OM OM1 2941 -0.550000 15.99940
2942 OM 2942 OM OM1 2942 -0.550000 15.99940
2943 OM 2943 OM OM1 2943 -0.550000 15.99940
2944 OM 2944 OM OM1 2944 -0.550000 15.99940
2945 OM 2945 OM OM1 2945 -0.550000 15.99940
2946 OM 2946 OM OM1 2946 -0.550000 15.99940
2947 OM 2947 OM OM1 2947 -0.550000 15.99940
2948 OM 2948 OM OM1 2948 -0.550000 15.99940
2949 OM 2949 OM OM1 2949 -0.550000 15.99940
2950 OM 2950 OM OM1 2950 -0.550000 15.99940
2951 OM 2951 OM OM1 2951 -0.550000 15.99940
2952 OM 2952 OM OM1 2952 -0.550000 15.99940
2953 OM 2953 OM OM1 2953 -0.550000 15.99940
2954 OM 2954 OM OM1 2954 -0.550000 15.99940
2955 OM 2955 OM OM1 2955 -0.550000 15.99940
2956 OM 2956 OM OM1 2956 -0.550000 15.99940
2957 OM 2957 OM OM1 2957 -0.550000 15.99940
2958 OM 2958 OM OM1 2958 -0.550000 15.99940
2959 OM 2959 OM OM1 2959 -0.550000 15.99940
2960 OM 2960 OM OM1 2960 -0.550000 15.99940
2961 OM 2961 OM OM1 2961 -0.550000 15.99940
2962 OM 2962 OM OM1 2962 -0.550000 15.99940
2963 OM 2963 OM OM1 2963 -0.550000 15.99940
2964 OM 2964 OM OM1 2964 -0.550000 15.99940
2965 OM 2965 OM OM1 2965 -0.550000 15.99940
2966 OM 2966 OM OM1 2966 -0.550000 15.99940
2967 OM 2967 OM OM1 2967 -0.550000 15.99940
2968 OM 2968 OM OM1 2968 -0.550000 15.99940
2969 OM 2969 OM OM1 2969 -0.550000 15.99940
2970 OM 2970 OM OM1 2970 -0.550000 15.99940
2971 OM 2971 OM OM1 2971 -0.550000 15.99940
2972 OM 2972 OM OM1 2972 -0.550000 15.99940
2973 OM 2973 OM OM1 2973 -0.550000 15.99940
2974 OM 2974 OM OM1 2974 -0.550000 15.99940
2975 OM 2975 OM OM1 2975 -0.550000 15.99940
2976 OM 2976 OM OM1 2976 -0.550000 15.99940
2977 OM 2977 OM OM1 2977 -0.550000 15.99940
2978 OM 2978 OM OM1 2978 -0.550000 15.99940
2979 OM 2979 OM OM1 2979 -0.550000 15.99940
2980 OM 2980 OM OM1 2980 -0.550000 15.99940
2981 OM 2981 OM OM1 2981 -0.550000 15.99940
2982 OM 2982 OM OM1 2982 -0.550000 15.99940
2983 OM 2983 OM OM1 2983 -0.550000 15.99940
2984 OM 2984 OM OM1 2984 -0.550000 15.99940
2985 OM 2985 OM OM1 2985 -0.550000 15.99940
2986 OM 2986 OM OM1 2986 -0.550000 15.99940
2987 OM 2987 OM OM1 2987 -0.550000 15.99940
2988 OM 2988 OM OM1 2988 -0.550000 15.99940
2989 OM 2989 OM OM1 2989 -0.550000 15.99940
2990 OM 2990 OM OM1 2990 -0.550000 15.99940
2991 OM 2991 OM OM1 2991 -0.550000 15.99940
2992 OM 2992 OM OM1 2992 -0.550000 15.99940
2993 OM 2993 OM OM1 2993 -0.550000 15.99940
2994 OM 2994 OM OM1 2994 -0.550000 15.99940
2995 OM 2995 OM OM1 2995 -0.550000 15.99940
2996 OM 2996 OM OM1 2996 -0.550000 15.99940
2997 OM 2997 OM OM1 2997 -0.550000 15.99940
2998 OM 2998 OM OM1 2998 -0.550000 15.99940
2999 OM 2999 OM OM1 2999 -0.550000 15.99940
3000 OM 3000 OM OM1 3000 -0.550000 15.99940
3001 OM 3001 OM OM1 3001 -0.550000 15.99940
3002 OM 3002 OM OM1 3002 -0.550000 15.99940
3003 OM 3003 OM OM1 3003 -0.550000 15.99940
3004 OM 3004 OM OM1 3004 -0.550000 15.99940
3005 OM 3005 OM OM1 3005 -0.550000 15.99940
3006 OM 3006 OM OM1 3006 -0.550000 15.99940
3007 OM 3007 OM OM1 3007 -0.550000 15.99940
3008 OM 3008 OM OM1 3008 -0.550000 15.99940
3009 OM 3009 OM OM1 3009 -0.550000 15.99940
3010 OM 3010 OM OM1 3010 -0.550000 15.99940
3011 OM 3011 OM OM1 3011 -0.550000 15.99940
3012 OM 3012 OM OM1 3012 -0.550000 15.99940
3013 OM 3013 OM OM1 3013 -0.550000 15.99940
3014 OM 3014 OM OM1 3014 -0.550000 15.99940
3015 OM 3015 OM OM1 3015 -0.550000 15.99940
3016 OM 3016 OM OM1 3016 -0.550000 15.99940
3017 OM 3017 OM OM1 3017 -0.550000 15.99940
3018 OM 3018 OM OM1 3018 -0.550000 15.99940
3019 OM 3019 OM OM1 3019 -0.550000 15.99940
3020 OM 3020 OM OM1 3020 -0.550000 15.99940
3021 OM 3021 OM OM1 3021 -0.550000 15.99940
3022 OM 3022 OM OM1 3022 -0.550000 15.99940
3023 OM 3023 OM OM1 3023 -0.550000 15.99940
3024 OM 3024 OM OM1 3024 -0.550000 15.99940
3025 OM 3025 OM OM1 3025 -0.550000 15.99940
3026 OM 3026 OM OM1 3026 -0.550000 15.99940
3027 OM 3027 OM OM1 3027 -0.550000 15.99940
3028 OM 3028 OM OM1 3028 -0.550000 15.99940
3029 OM 3029 OM OM1 3029 -0.550000 15.99940
3030 OM 3030 OM OM1 3030 -0.550000 15.99940
3031 OM 3031 OM OM1 3031 -0.550000 15.99940
3032 OM 3032 OM OM1 3032 -0.550000 15.99940
3033 OM 3033 OM OM1 3033 -0.550000 15.99940
3034 OM 3034 OM OM1 3034 -0.550000 15.99940
3035 OM 3035 OM OM1 3035 -0.550000 15.99940
3036 OM 3036 OM OM1 3036 -0.550000 15.99940
3037 OM 3037 OM OM1 3037 -0.550000 15.99940
3038 OM 3038 OM OM1 3038 -0.550000 15.99940
3039 OM 3039 OM OM1 3039 -0.550000 15.99940
3040 OM 3040 OM OM1 3040 -0.550000 15.99940
3041 OM 3041 OM OM1 3041 -0.550000 15.99940
3042 OM 3042 OM OM1 3042 -0.550000 15.99940
3043 OM 3043 OM OM1 3043 -0.550000 15.99940
3044 OM 3044 OM OM1 3044 -0.550000 15.99940
3045 OM 3045 OM OM1 3045 -0.550000 15.99940
3046 OM 3046 OM OM1 3046 -0.550000 15.99940
3047 OM 3047 OM OM1 3047 -0.550000 15.99940
3048 OM 3048 OM OM1 3048 -0.550000 15.99940
3049 OM 3049 OM OM1 3049 -0.550000 15.99940
3050 OM 3050 OM OM1 3050 -0.550000 15.99940
3051 OM 3051 OM OM1 3051 -0.550000 15.99940
3052 OM 3052 OM OM1 3052 -0.550000 15.99940
3053 OM 3053 OM OM1 3053 -0.550000 15.99940
3054 OM 3054 OM OM1 3054 -0.550000 15.99940
3055 OM 3055 OM OM1 3055 -0.550000 15.99940
3056 OM 3056 OM OM1 3056 -0.550000 15.99940
3057 OM 3057 OM OM1 3057 -0.550000 15.99940
3058 OM 3058 OM OM1 3058 -0.550000 15.99940
3059 OM 3059 OM OM1 3059 -0.550000 15.99940
3060 OM 3060 OM OM1 3060 -0.550000 15.99940
3061 OM 3061 OM OM1 3061 -0.550000 15.99940
3062 OM 3062 OM OM1 3062 -0.550000 15.99940
3063 OM 3063 OM OM1 3063 -0.550000 15.99940
3064 OM 3064 OM OM1 3064 -0.550000 15.99940
3065 OM 3065 OM OM1 3065 -0.550000 15.99940
3066 OM 3066 OM OM1 3066 -0.550000 15.99940
3067 OM 3067 OM OM1 3067 -0.550000 15.99940
3068 OM 3068 OM OM1 3068 -0.550000 15.99940
3069 OM 3069 OM OM1 3069 -0.550000 15.99940
3070 OM 3070 OM OM1 3070 -0.550000 15.99940
3071 OM 3071 OM OM1 3071 -0.550000 15.99940
3072 OM 3072 OM OM1 3072 -0.550000 15.99940
3073 OM 3073 OM OM1 3073 -0.550000 15.99940
3074 OM 3074 OM OM1 3074 -0.550000 15.99940
3075 OM 3075 OM OM1 3075 -0.550000 15.99940
3076 OM 3076 OM OM1 3076 -0.550000 15.99940
3077 OM 3077 OM OM1 3077 -0.550000 15.99940
3078 OM 3078 OM OM1 3078 -0.550000 15.99940
3079 OM 3079 OM OM1 3079 -0.550000 15.99940
3080 OM 3080 OM OM1 3080 -0.550000 15.99940
3081 OM 3081 OM OM1 3081 -0.550000 15.99940
3082 OM 3082 OM OM1 3082 -0.550000 15.99940
3083 OM 3083 OM OM1 3083 -0.550000 15.99940
3084 OM 3084 OM OM1 3084 -0.550000 15.99940
3085 OM 3085 OM OM1 3085 -0.550000 15.99940
3086 OM 3086 OM OM1 3086 -0.550000 15.99940
3087 OM 3087 OM OM1 3087 -0.550000 15.99940
3088 OM 3088 OM OM1 3088 -0.550000 15.99940
3089 OM 3089 OM OM1 3089 -0.550000 15.99940
3090 OM 3090 OM OM1 3090 -0.550000 15.99940
3091 OM 3091 OM OM1 3091 -0.550000 15.99940
3092 OM 3092 OM OM1 3092 -0.550000 15.99940
3093 OM 3093 OM OM1 3093 -0.550000 15.99940
3094 OM 3094 OM OM1 3094 -0.550000 15.99940
3095 OM 3095 OM OM1 3095 -0.550000 15.99940
3096 OM 3096 OM OM1 3096 -0.550000 15.99940
3097 OM 3097 OM OM1 3097 -0.550000 15.99940
3098 OM 3098 OM OM1 3098 -0.550000 15.99940
3099 OM 3099 OM OM1 3099 -0.550000 15.99940
3100 OM 3100 OM OM1 3100 -0.550000 15.99940
3101 OM 3101 OM OM1 3101 -0.550000 15.99940
3102 OM 3102 OM OM1 3102 -0.550000 15.99940
3103 OM 3103 OM OM1 3103 -0.550000 15.99940
3104 OM 3104 OM OM1 3104 -0.550000 15.99940
3105 OM 3105 OM OM1 3105 -0.550000 15.99940
3106 OM 3106 OM OM1 3106 -0.550000 15.99940
3107 OM 3107 OM OM1 3107 -0.550000 15.99940
3108 OM 3108 OM OM1 3108 -0.550000 15.99940
3109 OM 3109 OM OM1 3109 -0.550000 15.99940
3110 OM 3110 OM OM1 3110 -0.550000 15.99940
3111 OM 3111 OM OM1 3111 -0.550000 15.99940
3112 OM 3112 OM OM1 3112 -0.550000 15.99940
3113 OM 3113 OM OM1 3113 -0.550000 15.99940
3114 OM 3114 OM OM1 3114 -0.550000 15.99940
3115 OM 3115 OM OM1 3115 -0.550000 15.99940
3116 OM 3116 OM OM1 3116 -0.550000 15.99940
3117 OM 3117 OM OM1 3117 -0.550000 15.99940
3118 OM 3118 OM OM1 3118 -0.550000 15.99940
3119 OM 3119 OM OM1 3119 -0.550000 15.99940
3120 OM 3120 OM OM1 3120 -0.550000 15.99940
3121 OM 3121 OM OM1 3121 -0.550000 15.99940
3122 OM 3122 OM OM1 3122 -0.550000 15.99940
3123 OM 3123 OM OM1 3123 -0.550000 15.99940
3124 OM 3124 OM OM1 3124 -0.550000 15.99940
3125 OM 3125 OM OM1 3125 -0.550000 15.99940
3126 OM 3126 OM OM1 3126 -0.550000 15.99940
3127 OM 3127 OM OM1 3127 -0.550000 15.99940
3128 OM 3128 OM OM1 3128 -0.550000 15.99940
3129 OM 3129 OM OM1 3129 -0.550000 15.99940
3130 OM 3130 OM OM1 3130 -0.550000 15.99940
3131 OM 3131 OM OM1 3131 -0.550000 15.99940
3132 OM 3132 OM OM1 3132 -0.550000 15.99940
3133 OM 3133 OM OM1 3133 -0.550000 15.99940
3134 OM 3134 OM OM1 3134 -0.550000 15.99940
3135 OM 3135 OM OM1 3135 -0.550000 15.99940
3136 OM 3136 OM OM1 3136 -0.550000 15.99940
3137 OM 3137 OM OM1 3137 -0.550000 15.99940
3138 OM 3138 OM OM1 3138 -0.550000 15.99940
3139 OM 3139 OM OM1 3139 -0.550000 15.99940
3140 OM 3140 OM OM1 3140 -0.550000 15.99940
3141 OM 3141 OM OM1 3141 -0.550000 15.99940
3142 OM 3142 OM OM1 3142 -0.550000 15.99940
3143 OM 3143 OM OM1 3143 -0.550000 15.99940
3144 OM 3144 OM OM1 3144 -0.550000 15.99940
3145 OM 3145 OM OM1 3145 -0.550000 15.99940
3146 OM 3146 OM OM1 3146 -0.550000 15.99940
3147 OM 3147 OM OM1 3147 -0.550000 15.99940
3148 OM 3148 OM OM1 3148 -0.550000 15.99940
3149 OM 3149 OM OM1 3149 -0.550000 15.99940
3150 OM 3150 OM OM1 3150 -0.550000 15.99940
3151 OM 3151 OM OM1 3151 -0.550000 15.99940
3152 OM 3152 OM OM1 3152 -0.550000 15.99940
3153 OM 3153 OM OM1 3153 -0.550000 15.99940
3154 OM 3154 OM OM1 3154 -0.550000 15.99940
3155 OM 3155 OM OM1 3155 -0.550000 15.99940
3156 OM 3156 OM OM1 3156 -0.550000 15.99940
3157 OM 3157 OM OM1 3157 -0.550000 15.99940
3158 OM 3158 OM OM1 3158 -0.550000 15.99940
3159 OM 3159 OM OM1 3159 -0.550000 15.99940
3160 OM 3160 OM OM1 3160 -0.550000 15.99940
3161 OM 3161 OM OM1 3161 -0.550000 15.99940
3162 OM 3162 OM OM1 3162 -0.550000 15.99940
3163 OM 3163 OM OM1 3163 -0.550000 15.99940
3164 OM 3164 OM OM1 3164 -0.550000 15.99940
3165 OM 3165 OM OM1 3165 -0.550000 15.99940
3166 OM 3166 OM OM1 3166 -0.550000 15.99940
3167 OM 3167 OM OM1 3167 -0.550000 15.99940
3168 OM 3168 OM OM1 3168 -0.550000 15.99940
3169 OM 3169 OM OM1 3169 -0.550000 15.99940
3170 OM 3170 OM OM1 3170 -0.550000 15.99940
3171 OM 3171 OM OM1 3171 -0.550000 15.99940
3172 OM 3172 OM OM1 3172 -0.550000 15.99940
3173 OM 3173 OM OM1 3173 -0.550000 15.99940
3174 OM 3174 OM OM1 3174 -0.550000 15.99940
3175 OM 3175 OM OM1 3175 -0.550000 15.99940
3176 OM 3176 OM OM1 3176 -0.550000 15.99940
3177 OM 3177 OM OM1 3177 -0.550000 15.99940
3178 OM 3178 OM OM1 3178 -0.550000 15.99940
3179 OM 3179 OM OM1 3179 -0.550000 15.99940
3180 OM 3180 OM OM1 3180 -0.550000 15.99940
3181 OM 3181 OM OM1 3181 -0.550000 15.99940
3182 OM 3182 OM OM1 3182 -0.550000 15.99940
3183 OM 3183 OM OM1 3183 -0.550000 15.99940
3184 OM 3184 OM OM1 3184 -0.550000 15.99940
3185 OM 3185 OM OM1 3185 -0.550000 15.99940
3186 OM 3186 OM OM1 3186 -0.550000 15.99940
3187 OM 3187 OM OM1 3187 -0.550000 15.99940
3188 OM 3188 OM OM1 3188 -0.550000 15.99940
3189 OM 3189 OM OM1 3189 -0.550000 15.99940
3190 OM 3190 OM OM1 3190 -0.550000 15.99940
3191 OM 3191 OM OM1 3191 -0.550000 15.99940
3192 OM 3192 OM OM1 3192 -0.550000 15.99940
3193 OM 3193 OM OM1 3193 -0.550000 15.99940
3194 OM 3194 OM OM1 3194 -0.550000 15.99940
3195 OM 3195 OM OM1 3195 -0.550000 15.99940
3196 OM 3196 OM OM1 3196 -0.550000 15.99940
3197 OM 3197 OM OM1 3197 -0.550000 15.99940
3198 OM 3198 OM OM1 3198 -0.550000 15.99940
3199 OM 3199 OM OM1 3199 -0.550000 15.99940
3200 OM 3200 OM OM1 3200 -0.550000 15.99940
3201 OM 3201 OM OM1 3201 -0.550000 15.99940
3202 OM 3202 OM OM1 3202 -0.550000 15.99940
3203 OM 3203 OM OM1 3203 -0.550000 15.99940
3204 OM 3204 OM OM1 3204 -0.550000 15.99940
3205 OM 3205 OM OM1 3205 -0.550000 15.99940
3206 OM 3206 OM OM1 3206 -0.550000 15.99940
3207 OM 3207 OM OM1 3207 -0.550000 15.99940
3208 OM 3208 OM OM1 3208 -0.550000 15.99940
3209 OM 3209 OM OM1 3209 -0.550000 15.99940
3210 OM 3210 OM OM1 3210 -0.550000 15.99940
3211 OM 3211 OM OM1 3211 -0.550000 15.99940
3212 OM 3212 OM OM1 3212 -0.550000 15.99940
3213 OM 3213 OM OM1 3213 -0.550000 15.99940
3214 OM 3214 OM OM1 3214 -0.550000 15.99940
3215 OM 3215 OM OM1 3215 -0.550000 15.99940
3216 OM 3216 OM OM1 3216 -0.550000 15.99940
3217 OM 3217 OM OM1 3217 -0.550000 15.99940
3218 OM 3218 OM OM1 3218 -0.550000 15.99940
3219 OM 3219 OM OM1 3219 -0.550000 15.99940
3220 OM 3220 OM OM1 3220 -0.550000 15.99940
3221 OM 3221 OM OM1 3221 -0.550000 15.99940
3222 OM 3222 OM OM1 3222 -0.550000 15.99940
3223 OM 3223 OM OM1 3223 -0.550000 15.99940
3224 OM 3224 OM OM1 3224 -0.550000 15.99940
3225 OM 3225 OM OM1 3225 -0.550000 15.99940
3226 OM 3226 OM OM1 3226 -0.550000 15.99940
3227 OM 3227 OM OM1 3227 -0.550000 15.99940
3228 OM 3228 OM OM1 3228 -0.550000 15.99940
3229 OM 3229 OM OM1 3229 -0.550000 15.99940
3230 OM 3230 OM OM1 3230 -0.550000 15.99940
3231 OM 3231 OM OM1 3231 -0.550000 15.99940
3232 OM 3232 OM OM1 3232 -0.550000 15.99940
3233 OM 3233 OM OM1 3233 -0.550000 15.99940
3234 OM 3234 OM OM1 3234 -0.550000 15.99940
3235 OM 3235 OM OM1 3235 -0.550000 15.99940
3236 OM 3236 OM OM1 3236 -0.550000 15.99940
3237 OM 3237 OM OM1 3237 -0.550000 15.99940
3238 OM 3238 OM OM1 3238 -0.550000 15.99940
3239 OM 3239 OM OM1 3239 -0.550000 15.99940
3240 OM 3240 OM OM1 3240 -0.550000 15.99940
3241 OM 3241 OM OM1 3241 -0.550000 15.99940
3242 OM 3242 OM OM1 3242 -0.550000 15.99940
3243 OM 3243 OM OM1 3243 -0.550000 15.99940
3244 OM 3244 OM OM1 3244 -0.550000 15.99940
3245 OM 3245 OM OM1 3245 -0.550000 15.99940
3246 OM 3246 OM OM1 3246 -0.550000 15.99940
3247 OM 3247 OM OM1 3247 -0.550000 15.99940
3248 OM 3248 OM OM1 3248 -0.550000 15.99940
3249 OM 3249 OM OM1 3249 -0.550000 15.99940
3250 OM 3250 OM OM1 3250 -0.550000 15.99940
3251 OM 3251 OM OM1 3251 -0.550000 15.99940
3252 OM 3252 OM OM1 3252 -0.550000 15.99940
3253 OM 3253 OM OM1 3253 -0.550000 15.99940
3254 OM 3254 OM OM1 3254 -0.550000 15.99940
3255 OM 3255 OM OM1 3255 -0.550000 15.99940
3256 OM 3256 OM OM1 3256 -0.550000 15.99940
3257 OM 3257 OM OM1 3257 -0.550000 15.99940
3258 OM 3258 OM OM1 3258 -0.550000 15.99940
3259 OM 3259 OM OM1 3259 -0.550000 15.99940
3260 OM 3260 OM OM1 3260 -0.550000 15.99940
3261 OM 3261 OM OM1 3261 -0.550000 15.99940
3262 OM 3262 OM OM1 3262 -0.550000 15.99940
3263 OM 3263 OM OM1 3263 -0.550000 15.99940
3264 OM 3264 OM OM1 3264 -0.550000 15.99940
3265 OM 3265 OM OM1 3265 -0.550000 15.99940
3266 OM 3266 OM OM1 3266 -0.550000 15.99940
3267 OM 3267 OM OM1 3267 -0.550000 15.99940
3268 OM 3268 OM OM1 3268 -0.550000 15.99940
3269 OM 3269 OM OM1 3269 -0.550000 15.99940
3270 OM 3270 OM OM1 3270 -0.550000 15.99940
3271 OM 3271 OM OM1 3271 -0.550000 15.99940
3272 OM 3272 OM OM1 3272 -0.550000 15.99940
3273 OM 3273 OM OM1 3273 -0.550000 15.99940
3274 OM 3274 OM OM1 3274 -0.550000 15.99940
3275 OM 3275 OM OM1 3275 -0.550000 15.99940
3276 OM 3276 OM OM1 3276 -0.550000 15.99940
3277 OM 3277 OM OM1 3277 -0.550000 15.99940
3278 OM 3278 OM OM1 3278 -0.550000 15.99940
3279 OM 3279 OM OM1 3279 -0.550000 15.99940
3280 OM 3280 OM OM1 3280 -0.550000 15.99940
3281 OM 3281 OM OM1 3281 -0.550000 15.99940
3282 OM 3282 OM OM1 3282 -0.550000 15.99940
3283 OM 3283 OM OM1 3283 -0.550000 15.99940
3284 OM 3284 OM OM1 3284 -0.550000 15.99940
3285 OM 3285 OM OM1 3285 -0.550000 15.99940
3286 OM 3286 OM OM1 3286 -0.550000 15.99940
3287 OM 3287 OM OM1 3287 -0.550000 15.99940
3288 OM 3288 OM OM1 3288 -0.550000 15.99940
3289 OM 3289 OM OM1 3289 -0.550000 15.99940
3290 OM 3290 OM OM1 3290 -0.550000 15.99940
3291 OM 3291 OM OM1 3291 -0.550000 15.99940
3292 OM 3292 OM OM1 3292 -0.550000 15.99940
3293 OM 3293 OM OM1 3293 -0.550000 15.99940
3294 OM 3294 OM OM1 3294 -0.550000 15.99940
3295 OM 3295 OM OM1 3295 -0.550000 15.99940
3296 OM 3296 OM OM1 3296 -0.550000 15.99940
3297 OM 3297 OM OM1 3297 -0.550000 15.99940
3298 OM 3298 OM OM1 3298 -0.550000 15.99940
3299 OM 3299 OM OM1 3299 -0.550000 15.99940
3300 OM 3300 OM OM1 3300 -0.550000 15.99940
3301 OM 3301 OM OM1 3301 -0.550000 15.99940
3302 OM 3302 OM OM1 3302 -0.550000 15.99940
3303 OM 3303 OM OM1 3303 -0.550000 15.99940
3304 OM 3304 OM OM1 3304 -0.550000 15.99940
3305 OM 3305 OM OM1 3305 -0.550000 15.99940
3306 OM 3306 OM OM1 3306 -0.550000 15.99940
3307 OM 3307 OM OM1 3307 -0.550000 15.99940
3308 OM 3308 OM OM1 3308 -0.550000 15.99940
3309 OM 3309 OM OM1 3309 -0.550000 15.99940
3310 OM 3310 OM OM1 3310 -0.550000 15.99940
3311 OM 3311 OM OM1 3311 -0.550000 15.99940
3312 OM 3312 OM OM1 3312 -0.550000 15.99940
3313 OM 3313 OM OM1 3313 -0.550000 15.99940
3314 OM 3314 OM OM1 3314 -0.550000 15.99940
3315 OM 3315 OM OM1 3315 -0.550000 15.99940
3316 OM 3316 OM OM1 3316 -0.550000 15.99940
3317 OM 3317 OM OM1 3317 -0.550000 15.99940
3318 OM 3318 OM OM1 3318 -0.550000 15.99940
3319 OM 3319 OM OM1 3319 -0.550000 15.99940
3320 OM 3320 OM OM1 3320 -0.550000 15.99940
3321 OM 3321 OM OM1 3321 -0.550000 15.99940
3322 OM 3322 OM OM1 3322 -0.550000 15.99940
3323 OM 3323 OM OM1 3323 -0.550000 15.99940
3324 OM 3324 OM OM1 3324 -0.550000 15.99940
3325 OM 3325 OM OM1 3325 -0.550000 15.99940
3326 OM 3326 OM OM1 3326 -0.550000 15.99940
3327 OM 3327 OM OM1 3327 -0.550000 15.99940
3328 OM 3328 OM OM1 3328 -0.550000 15.99940
3329 OM 3329 OM OM1 3329 -0.550000 15.99940
3330 OM 3330 OM OM1 3330 -0.550000 15.99940
3331 OM 3331 OM OM1 3331 -0.550000 15.99940
3332 OM 3332 OM OM1 3332 -0.550000 15.99940
3333 OM 3333 OM OM1 3333 -0.550000 15.99940
3334 OM 3334 OM OM1 3334 -0.550000 15.99940
3335 OM 3335 OM OM1 3335 -0.550000 15.99940
3336 OM 3336 OM OM1 3336 -0.550000 15.99940
3337 OM 3337 OM OM1 3337 -0.550000 15.99940
3338 OM 3338 OM OM1 3338 -0.550000 15.99940
3339 OM 3339 OM OM1 3339 -0.550000 15.99940
3340 OM 3340 OM OM1 3340 -0.550000 15.99940
3341 OM 3341 OM OM1 3341 -0.550000 15.99940
3342 OM 3342 OM OM1 3342 -0.550000 15.99940
3343 OM 3343 OM OM1 3343 -0.550000 15.99940
3344 OM 3344 OM OM1 3344 -0.550000 15.99940
3345 OM 3345 OM OM1 3345 -0.550000 15.99940
3346 OM 3346 OM OM1 3346 -0.550000 15.99940
3347 OM 3347 OM OM1 3347 -0.550000 15.99940
3348 OM 3348 OM OM1 3348 -0.550000 15.99940
3349 OM 3349 OM OM1 3349 -0.550000 15.99940
3350 OM 3350 OM OM1 3350 -0.550000 15.99940
3351 OM 3351 OM OM1 3351 -0.550000 15.99940
3352 OM 3352 OM OM1 3352 -0.550000 15.99940
3353 OM 3353 OM OM1 3353 -0.550000 15.99940
3354 OM 3354 OM OM1 3354 -0.550000 15.99940
3355 OM 3355 OM OM1 3355 -0.550000 15.99940
3356 OM 3356 OM OM1 3356 -0.550000 15.99940
3357 OM 3357 OM OM1 3357 -0.550000 15.99940
3358 OM 3358 OM OM1 3358 -0.550000 15.99940
3359 OM 3359 OM OM1 3359 -0.550000 15.99940
3360 OM 3360 OM OM1 3360 -0.550000 15.99940
3361 OM 3361 OM OM1 3361 -0.550000 15.99940
3362 OM 3362 OM OM1 3362 -0.550000 15.99940
3363 OM 3363 OM OM1 3363 -0.550000 15.99940
3364 OM 3364 OM OM1 3364 -0.550000 15.99940
3365 OM 3365 OM OM1 3365 -0.550000 15.99940
3366 OM 3366 OM OM1 3366 -0.550000 15.99940
3367 OM 3367 OM OM1 3367 -0.550000 15.99940
3368 OM 3368 OM OM1 3368 -0.550000 15.99940
3369 OM 3369 OM OM1 3369 -0.550000 15.99940
3370 OM 3370 OM OM1 3370 -0.550000 15.99940
3371 OM 3371 OM OM1 3371 -0.550000 15.99940
3372 OM 3372 OM OM1 3372 -0.550000 15.99940
3373 OM 3373 OM OM1 3373 -0.550000 15.99940
3374 OM 3374 OM OM1 3374 -0.550000 15.99940
3375 OM 3375 OM OM1 3375 -0.550000 15.99940
3376 OM 3376 OM OM1 3376 -0.550000 15.99940
3377 OM 3377 OM OM1 3377 -0.550000 15.99940
3378 OM 3378 OM OM1 3378 -0.550000 15.99940
3379 OM 3379 OM OM1 3379 -0.550000 15.99940
3380 OM 3380 OM OM1 3380 -0.550000 15.99940
3381 OM 3381 OM OM1 3381 -0.550000 15.99940
3382 OM 3382 OM OM1 3382 -0.550000 15.99940
3383 OM 3383 OM OM1 3383 -0.550000 15.99940
3384 OM 3384 OM OM1 3384 -0.550000 15.99940
3385 OM 3385 OM OM1 3385 -0.550000 15.99940
3386 OM 3386 OM OM1 3386 -0.550000 15.99940
3387 OM 3387 OM OM1 3387 -0.550000 15.99940
3388 OM 3388 OM OM1 3388 -0.550000 15.99940
3389 OM 3389 OM OM1 3389 -0.550000 15.99940
3390 OM 3390 OM OM1 3390 -0.550000 15.99940
3391 OM 3391 OM OM1 3391 -0.550000 15.99940
3392 OM 3392 OM OM1 3392 -0.550000 15.99940
3393 OM 3393 OM OM1 3393 -0.550000 15.99940
3394 OM 3394 OM OM1 3394 -0.550000 15.99940
3395 OM 3395 OM OM1 3395 -0.550000 15.99940
3396 OM 3396 OM OM1 3396 -0.550000 15.99940
3397 OM 3397 OM OM1 3397 -0.550000 15.99940
3398 OM 3398 OM OM1 3398 -0.550000 15.99940
3399 OM 3399 OM OM1 3399 -0.550000 15.99940
3400 OM 3400 OM OM1 3400 -0.550000 15.99940
3401 OM 3401 OM OM1 3401 -0.550000 15.99940
3402 OM 3402 OM OM1 3402 -0.550000 15.99940
3403 OM 3403 OM OM1 3403 -0.550000 15.99940
3404 OM 3404 OM OM1 3404 -0.550000 15.99940
3405 OM 3405 OM OM1 3405 -0.550000 15.99940
3406 OM 3406 OM OM1 3406 -0.550000 15.99940
3407 OM 3407 OM OM1 3407 -0.550000 15.99940
3408 OM 3408 OM OM1 3408 -0.550000 15.99940
3409 OM 3409 OM OM1 3409 -0.550000 15.99940
3410 OM 3410 OM OM1 3410 -0.550000 15.99940
3411 OM 3411 OM OM1 3411 -0.550000 15.99940
3412 OM 3412 OM OM1 3412 -0.550000 15.99940
3413 OM 3413 OM OM1 3413 -0.550000 15.99940
3414 OM 3414 OM OM1 3414 -0.550000 15.99940
3415 OM 3415 OM OM1 3415 -0.550000 15.99940
3416 OM 3416 OM OM1 3416 -0.550000 15.99940
3417 OM 3417 OM OM1 3417 -0.550000 15.99940
3418 OM 3418 OM OM1 3418 -0.550000 15.99940
3419 OM 3419 OM OM1 3419 -0.550000 15.99940
3420 OM 3420 OM OM1 3420 -0.550000 15.99940
3421 OM 3421 OM OM1 3421 -0.550000 15.99940
3422 OM 3422 OM OM1 3422 -0.550000 15.99940
3423 OM 3423 OM OM1 3423 -0.550000 15.99940
3424 OM 3424 OM OM1 3424 -0.550000 15.99940
3425 OM 3425 OM OM1 3425 -0.550000 15.99940
3426 OM 3426 OM OM1 3426 -0.550000 15.99940
3427 OM 3427 OM OM1 3427 -0.550000 15.99940
3428 OM 3428 OM OM1 3428 -0.550000 15.99940
3429 OM 3429 OM OM1 3429 -0.550000 15.99940
3430 OM 3430 OM OM1 3430 -0.550000 15.99940
3431 OM 3431 OM OM1 3431 -0.550000 15.99940
3432 OM 3432 OM OM1 3432 -0.550000 15.99940
3433 OM 3433 OM OM1 3433 -0.550000 15.99940
3434 OM 3434 OM OM1 3434 -0.550000 15.99940
3435 OM 3435 OM OM1 3435 -0.550000 15.99940
3436 OM 3436 OM OM1 3436 -0.550000 15.99940
3437 OM 3437 OM OM1 3437 -0.550000 15.99940
3438 OM 3438 OM OM1 3438 -0.550000 15.99940
3439 OM 3439 OM OM1 3439 -0.550000 15.99940
3440 OM 3440 OM OM1 3440 -0.550000 15.99940
3441 OM 3441 OM OM1 3441 -0.550000 15.99940
3442 OM 3442 OM OM1 3442 -0.550000 15.99940
3443 OM 3443 OM OM1 3443 -0.550000 15.99940
3444 OM 3444 OM OM1 3444 -0.550000 15.99940
3445 OM 3445 OM OM1 3445 -0.550000 15.99940
3446 OM 3446 OM OM1 3446 -0.550000 15.99940
3447 OM 3447 OM OM1 3447 -0.550000 15.99940
3448 OM 3448 OM OM1 3448 -0.550000 15.99940
3449 OM 3449 OM OM1 3449 -0.550000 15.99940
3450 OM 3450 OM OM1 3450 -0.550000 15.99940
3451 OM 3451 OM OM1 3451 -0.550000 15.99940
3452 OM 3452 OM OM1 3452 -0.550000 15.99940
3453 OM 3453 OM OM1 3453 -0.550000 15.99940
3454 OM 3454 OM OM1 3454 -0.550000 15.99940
3455 OM 3455 OM OM1 3455 -0.550000 15.99940
3456 OM 3456 OM OM1 3456 -0.550000 15.99940
3457 OM 3457 OM OM1 3457 -0.550000 15.99940
3458 OM 3458 OM OM1 3458 -0.550000 15.99940
3459 OM 3459 OM OM1 3459 -0.550000 15.99940
3460 OM 3460 OM OM1 3460 -0.550000 15.99940
3461 OM 3461 OM OM1 3461 -0.550000 15.99940
3462 OM 3462 OM OM1 3462 -0.550000 15.99940
3463 OM 3463 OM OM1 3463 -0.550000 15.99940
3464 OM 3464 OM OM1 3464 -0.550000 15.99940
3465 OM 3465 OM OM1 3465 -0.550000 15.99940
3466 OM 3466 OM OM1 3466 -0.550000 15.99940
3467 OM 3467 OM OM1 3467 -0.550000 15.99940
3468 OM 3468 OM OM1 3468 -0.550000 15.99940
3469 OM 3469 OM OM1 3469 -0.550000 15.99940
3470 OM 3470 OM OM1 3470 -0.550000 15.99940
3471 OM 3471 OM OM1 3471 -0.550000 15.99940
3472 OM 3472 OM OM1 3472 -0.550000 15.99940
3473 OM 3473 OM OM1 3473 -0.550000 15.99940
3474 OM 3474 OM OM1 3474 -0.550000 15.99940
3475 OM 3475 OM OM1 3475 -0.550000 15.99940
3476 OM 3476 OM OM1 3476 -0.550000 15.99940
3477 OM 3477 OM OM1 3477 -0.550000 15.99940
3478 OM 3478 OM OM1 3478 -0.550000 15.99940
3479 OM 3479 OM OM1 3479 -0.550000 15.99940
3480 OM 3480 OM OM1 3480 -0.550000 15.99940
3481 OM 3481 OM OM1 3481 -0.550000 15.99940
3482 OM 3482 OM OM1 3482 -0.550000 15.99940
3483 OM 3483 OM OM1 3483 -0.550000 15.99940
3484 OM 3484 OM OM1 3484 -0.550000 15.99940
3485 OM 3485 OM OM1 3485 -0.550000 15.99940
3486 OM 3486 OM OM1 3486 -0.550000 15.99940
3487 OM 3487 OM OM1 3487 -0.550000 15.99940
3488 OM 3488 OM OM1 3488 -0.550000 15.99940
3489 OM 3489 OM OM1 3489 -0.550000 15.99940
3490 OM 3490 OM OM1 3490 -0.550000 15.99940
3491 OM 3491 OM OM1 3491 -0.550000 15.99940
3492 OM 3492 OM OM1 3492 -0.550000 15.99940
3493 OM 3493 OM OM1 3493 -0.550000 15.99940
3494 OM 3494 OM OM1 3494 -0.550000 15.99940
3495 OM 3495 OM OM1 3495 -0.550000 15.99940
3496 OM 3496 OM OM1 3496 -0.550000 15.99940
3497 OM 3497 OM OM1 3497 -0.550000 15.99940
3498 OM 3498 OM OM1 3498 -0.550000 15.99940
3499 OM 3499 OM OM1 3499 -0.550000 15.99940
3500 OM 3500 OM OM1 3500 -0.550000 15.99940
3501 OM 3501 OM OM1 3501 -0.550000 15.99940
3502 OM 3502 OM OM1 3502 -0.550000 15.99940
3503 OM 3503 OM OM1 3503 -0.550000 15.99940
3504 OM 3504 OM OM1 3504 -0.550000 15.99940
3505 OM 3505 OM OM1 3505 -0.550000 15.99940
3506 OM 3506 OM OM1 3506 -0.550000 15.99940
3507 OM 3507 OM OM1 3507 -0.550000 15.99940
3508 OM 3508 OM OM1 3508 -0.550000 15.99940
3509 OM 3509 OM OM1 3509 -0.550000 15.99940
3510 OM 3510 OM OM1 3510 -0.550000 15.99940
3511 OM 3511 OM OM1 3511 -0.550000 15.99940
3512 OM 3512 OM OM1 3512 -0.550000 15.99940
3513 OM 3513 OM OM1 3513 -0.550000 15.99940
3514 OM 3514 OM OM1 3514 -0.550000 15.99940
3515 OM 3515 OM OM1 3515 -0.550000 15.99940
3516 OM 3516 OM OM1 3516 -0.550000 15.99940
3517 OM 3517 OM OM1 3517 -0.550000 15.99940
3518 OM 3518 OM OM1 3518 -0.550000 15.99940
3519 OM 3519 OM OM1 3519 -0.550000 15.99940
3520 OM 3520 OM OM1 3520 -0.550000 15.99940
3521 OM 3521 OM OM1 3521 -0.550000 15.99940
3522 OM 3522 OM OM1 3522 -0.550000 15.99940
3523 OM 3523 OM OM1 3523 -0.550000 15.99940
3524 OM 3524 OM OM1 3524 -0.550000 15.99940
3525 OM 3525 OM OM1 3525 -0.550000 15.99940
3526 OM 3526 OM OM1 3526 -0.550000 15.99940
3527 OM 3527 OM OM1 3527 -0.550000 15.99940
3528 OM 3528 OM OM1 3528 -0.550000 15.99940
3529 OM 3529 OM OM1 3529 -0.550000 15.99940
3530 OM 3530 OM OM1 3530 -0.550000 15.99940
3531 OM 3531 OM OM1 3531 -0.550000 15.99940
3532 OM 3532 OM OM1 3532 -0.550000 15.99940
3533 OM 3533 OM OM1 3533 -0.550000 15.99940
3534 OM 3534 OM OM1 3534 -0.550000 15.99940
3535 OM 3535 OM OM1 3535 -0.550000 15.99940
3536 OM 3536 OM OM1 3536 -0.550000 15.99940
3537 OM 3537 OM OM1 3537 -0.550000 15.99940
3538 OM 3538 OM OM1 3538 -0.550000 15.99940
3539 OM 3539 OM OM1 3539 -0.550000 15.99940
3540 OM 3540 OM OM1 3540 -0.550000 15.99940
3541 OM 3541 OM OM1 3541 -0.550000 15.99940
3542 OM 3542 OM OM1 3542 -0.550000 15.99940
3543 OM 3543 OM OM1 3543 -0.550000 15.99940
3544 OM 3544 OM OM1 3544 -0.550000 15.99940
3545 OM 3545 OM OM1 3545 -0.550000 15.99940
3546 OM 3546 OM OM1 3546 -0.550000 15.99940
3547 OM 3547 OM OM1 3547 -0.550000 15.99940
3548 OM 3548 OM OM1 3548 -0.550000 15.99940
3549 OM 3549 OM OM1 3549 -0.550000 15.99940
3550 OM 3550 OM OM1 3550 -0.550000 15.99940
3551 OM 3551 OM OM1 3551 -0.550000 15.99940
3552 OM 3552 OM OM1 3552 -0.550000 15.99940
3553 OM 3553 OM OM1 3553 -0.550000 15.99940
3554 OM 3554 OM OM1 3554 -0.550000 15.99940
3555 OM 3555 OM OM1 3555 -0.550000 15.99940
3556 OM 3556 OM OM1 3556 -0.550000 15.99940
3557 OM 3557 OM OM1 3557 -0.550000 15.99940
3558 OM 3558 OM OM1 3558 -0.550000 15.99940
3559 OM 3559 OM OM1 3559 -0.550000 15.99940
3560 OM 3560 OM OM1 3560 -0.550000 15.99940
3561 OM 3561 OM OM1 3561 -0.550000 15.99940
3562 OM 3562 OM OM1 3562 -0.550000 15.99940
3563 OM 3563 OM OM1 3563 -0.550000 15.99940
3564 OM 3564 OM OM1 3564 -0.550000 15.99940
3565 OM 3565 OM OM1 3565 -0.550000 15.99940
3566 OM 3566 OM OM1 3566 -0.550000 15.99940
3567 OM 3567 OM OM1 3567 -0.550000 15.99940
3568 OM 3568 OM OM1 3568 -0.550000 15.99940
3569 OM 3569 OM OM1 3569 -0.550000 15.99940
3570 OM 3570 OM OM1 3570 -0.550000 15.99940
3571 OM 3571 OM OM1 3571 -0.550000 15.99940
3572 OM 3572 OM OM1 3572 -0.550000 15.99940
3573 OM 3573 OM OM1 3573 -0.550000 15.99940
3574 OM 3574 OM OM1 3574 -0.550000 15.99940
3575 OM 3575 OM OM1 3575 -0.550000 15.99940
3576 OM 3576 OM OM1 3576 -0.550000 15.99940
3577 OM 3577 OM OM1 3577 -0.550000 15.99940
3578 OM 3578 OM OM1 3578 -0.550000 15.99940
3579 OM 3579 OM OM1 3579 -0.550000 15.99940
3580 OM 3580 OM OM1 3580 -0.550000 15.99940
3581 OM 3581 OM OM1 3581 -0.550000 15.99940
3582 OM 3582 OM OM1 3582 -0.550000 15.99940
3583 OM 3583 OM OM1 3583 -0.550000 15.99940
3584 OM 3584 OM OM1 3584 -0.550000 15.99940
3585 OM 3585 OM OM1 3585 -0.550000 15.99940
3586 OM 3586 OM OM1 3586 -0.550000 15.99940
3587 OM 3587 OM OM1 3587 -0.550000 15.99940
3588 OM 3588 OM OM1 3588 -0.550000 15.99940
3589 OM 3589 OM OM1 3589 -0.550000 15.99940
3590 OM 3590 OM OM1 3590 -0.550000 15.99940
3591 OM 3591 OM OM1 3591 -0.550000 15.99940
3592 OM 3592 OM OM1 3592 -0.550000 15.99940
3593 OM 3593 OM OM1 3593 -0.550000 15.99940
3594 OM 3594 OM OM1 3594 -0.550000 15.99940
3595 OM 3595 OM OM1 3595 -0.550000 15.99940
3596 OM 3596 OM OM1 3596 -0.550000 15.99940
3597 OM 3597 OM OM1 3597 -0.550000 15.99940
3598 OM 3598 OM OM1 3598 -0.550000 15.99940
3599 OM 3599 OM OM1 3599 -0.550000 15.99940
3600 OM 3600 OM OM1 3600 -0.550000 15.99940
3601 OM 3601 OM OM1 3601 -0.550000 15.99940
3602 OM 3602 OM OM1 3602 -0.550000 15.99940
3603 OM 3603 OM OM1 3603 -0.550000 15.99940
3604 OM 3604 OM OM1 3604 -0.550000 15.99940
3605 OM 3605 OM OM1 3605 -0.550000 15.99940
3606 OM 3606 OM OM1 3606 -0.550000 15.99940
3607 OM 3607 OM OM1 3607 -0.550000 15.99940
3608 OM 3608 OM OM1 3608 -0.550000 15.99940
3609 OM 3609 OM OM1 3609 -0.550000 15.99940
3610 OM 3610 OM OM1 3610 -0.550000 15.99940
3611 OM 3611 OM OM1 3611 -0.550000 15.99940
3612 OM 3612 OM OM1 3612 -0.550000 15.99940
3613 OM 3613 OM OM1 3613 -0.550000 15.99940
3614 OM 3614 OM OM1 3614 -0.550000 15.99940
3615 OM 3615 OM OM1 3615 -0.550000 15.99940
3616 OM 3616 OM OM1 3616 -0.550000 15.99940
3617 OM 3617 OM OM1 3617 -0.550000 15.99940
3618 OM 3618 OM OM1 3618 -0.550000 15.99940
3619 OM 3619 OM OM1 3619 -0.550000 15.99940
3620 OM 3620 OM OM1 3620 -0.550000 15.99940
3621 OM 3621 OM OM1 3621 -0.550000 15.99940
3622 OM 3622 OM OM1 3622 -0.550000 15.99940
3623 OM 3623 OM OM1 3623 -0.550000 15.99940
3624 OM 3624 OM OM1 3624 -0.550000 15.99940
3625 OM 3625 OM OM1 3625 -0.550000 15.99940
3626 OM 3626 OM OM1 3626 -0.550000 15.99940
3627 OM 3627 OM OM1 3627 -0.550000 15.99940
3628 OM 3628 OM OM1 3628 -0.550000 15.99940
3629 OM 3629 OM OM1 3629 -0.550000 15.99940
3630 OM 3630 OM OM1 3630 -0.550000 15.99940
3631 OM 3631 OM OM1 3631 -0.550000 15.99940
3632 OM 3632 OM OM1 3632 -0.550000 15.99940
3633 OM 3633 OM OM1 3633 -0.550000 15.99940
3634 OM 3634 OM OM1 3634 -0.550000 15.99940
3635 OM 3635 OM OM1 3635 -0.550000 15.99940
3636 OM 3636 OM OM1 3636 -0.550000 15.99940
3637 OM 3637 OM OM1 3637 -0.550000 15.99940
3638 OM 3638 OM OM1 3638 -0.550000 15.99940
3639 OM 3639 OM OM1 3639 -0.550000 15.99940
3640 OM 3640 OM OM1 3640 -0.550000 15.99940
3641 OM 3641 OM OM1 3641 -0.550000 15.99940
3642 OM 3642 OM OM1 3642 -0.550000 15.99940
3643 OM 3643 OM OM1 3643 -0.550000 15.99940
3644 OM 3644 OM OM1 3644 -0.550000 15.99940
3645 OM 3645 OM OM1 3645 -0.550000 15.99940
3646 OM 3646 OM OM1 3646 -0.550000 15.99940
3647 OM 3647 OM OM1 3647 -0.550000 15.99940
3648 OM 3648 OM OM1 3648 -0.550000 15.99940
3649 OM 3649 OM OM1 3649 -0.550000 15.99940
3650 OM 3650 OM OM1 3650 -0.550000 15.99940
3651 OM 3651 OM OM1 3651 -0.550000 15.99940
3652 OM 3652 OM OM1 3652 -0.550000 15.99940
3653 OM 3653 OM OM1 3653 -0.550000 15.99940
3654 OM 3654 OM OM1 3654 -0.550000 15.99940
3655 OM 3655 OM OM1 3655 -0.550000 15.99940
3656 OM 3656 OM OM1 3656 -0.550000 15.99940
3657 OM 3657 OM OM1 3657 -0.550000 15.99940
3658 OM 3658 OM OM1 3658 -0.550000 15.99940
3659 OM 3659 OM OM1 3659 -0.550000 15.99940
3660 OM 3660 OM OM1 3660 -0.550000 15.99940
3661 OM 3661 OM OM1 3661 -0.550000 15.99940
3662 OM 3662 OM OM1 3662 -0.550000 15.99940
3663 OM 3663 OM OM1 3663 -0.550000 15.99940
3664 OM 3664 OM OM1 3664 -0.550000 15.99940
3665 OM 3665 OM OM1 3665 -0.550000 15.99940
3666 OM 3666 OM OM1 3666 -0.550000 15.99940
3667 OM 3667 OM OM1 3667 -0.550000 15.99940
3668 OM 3668 OM OM1 3668 -0.550000 15.99940
3669 OM 3669 OM OM1 3669 -0.550000 15.99940
3670 OM 3670 OM OM1 3670 -0.550000 15.99940
3671 OM 3671 OM OM1 3671 -0.550000 15.99940
3672 OM 3672 OM OM1 3672 -0.550000 15.99940
3673 OM 3673 OM OM1 3673 -0.550000 15.99940
3674 OM 3674 OM OM1 3674 -0.550000 15.99940
3675 OM 3675 OM OM1 3675 -0.550000 15.99940
3676 OM 3676 OM OM1 3676 -0.550000 15.99940
3677 OM 3677 OM OM1 3677 -0.550000 15.99940
3678 OM 3678 OM OM1 3678 -0.550000 15.99940
3679 OM 3679 OM OM1 3679 -0.550000 15.99940
3680 OM 3680 OM OM1 3680 -0.550000 15.99940
3681 OM 3681 OM OM1 3681 -0.550000 15.99940
3682 OM 3682 OM OM1 3682 -0.550000 15.99940
3683 OM 3683 OM OM1 3683 -0.550000 15.99940
3684 OM 3684 OM OM1 3684 -0.550000 15.99940
3685 OM 3685 OM OM1 3685 -0.550000 15.99940
3686 OM 3686 OM OM1 3686 -0.550000 15.99940
3687 OM 3687 OM OM1 3687 -0.550000 15.99940
3688 OM 3688 OM OM1 3688 -0.550000 15.99940
3689 OM 3689 OM OM1 3689 -0.550000 15.99940
3690 OM 3690 OM OM1 3690 -0.550000 15.99940
3691 OM 3691 OM OM1 3691 -0.550000 15.99940
3692 OM 3692 OM OM1 3692 -0.550000 15.99940
3693 OM 3693 OM OM1 3693 -0.550000 15.99940
3694 OM 3694 OM OM1 3694 -0.550000 15.99940
3695 OM 3695 OM OM1 3695 -0.550000 15.99940
3696 OM 3696 OM OM1 3696 -0.550000 15.99940
3697 OM 3697 OM OM1 3697 -0.550000 15.99940
3698 OM 3698 OM OM1 3698 -0.550000 15.99940
3699 OM 3699 OM OM1 3699 -0.550000 15.99940
3700 OM 3700 OM OM1 3700 -0.550000 15.99940
3701 OM 3701 OM OM1 3701 -0.550000 15.99940
3702 OM 3702 OM OM1 3702 -0.550000 15.99940
3703 OM 3703 OM OM1 3703 -0.550000 15.99940
3704 OM 3704 OM OM1 3704 -0.550000 15.99940
3705 OM 3705 OM OM1 3705 -0.550000 15.99940
3706 OM 3706 OM OM1 3706 -0.550000 15.99940
3707 OM 3707 OM OM1 3707 -0.550000 15.99940
3708 OM 3708 OM OM1 3708 -0.550000 15.99940
3709 OM 3709 OM OM1 3709 -0.550000 15.99940
3710 OM 3710 OM OM1 3710 -0.550000 15.99940
3711 OM 3711 OM OM1 3711 -0.550000 15.99940
3712 OM 3712 OM OM1 3712 -0.550000 15.99940
3713 OM 3713 OM OM1 3713 -0.550000 15.99940
3714 OM 3714 OM OM1 3714 -0.550000 15.99940
3715 OM 3715 OM OM1 3715 -0.550000 15.99940
3716 OM 3716 OM OM1 3716 -0.550000 15.99940
3717 OM 3717 OM OM1 3717 -0.550000 15.99940
3718 OM 3718 OM OM1 3718 -0.550000 15.99940
3719 OM 3719 OM OM1 3719 -0.550000 15.99940
3720 OM 3720 OM OM1 3720 -0.550000 15.99940
3721 OM 3721 OM OM1 3721 -0.550000 15.99940
3722 OM 3722 OM OM1 3722 -0.550000 15.99940
3723 OM 3723 OM OM1 3723 -0.550000 15.99940
3724 OM 3724 OM OM1 3724 -0.550000 15.99940
3725 OM 3725 OM OM1 3725 -0.550000 15.99940
3726 OM 3726 OM OM1 3726 -0.550000 15.99940
3727 OM 3727 OM OM1 3727 -0.550000 15.99940
3728 OM 3728 OM OM1 3728 -0.550000 15.99940
3729 OM 3729 OM OM1 3729 -0.550000 15.99940
3730 OM 3730 OM OM1 3730 -0.550000 15.99940
3731 OM 3731 OM OM1 3731 -0.550000 15.99940
3732 OM 3732 OM OM1 3732 -0.550000 15.99940
3733 OM 3733 OM OM1 3733 -0.550000 15.99940
3734 OM 3734 OM OM1 3734 -0.550000 15.99940
3735 OM 3735 OM OM1 3735 -0.550000 15.99940
3736 OM 3736 OM OM1 3736 -0.550000 15.99940
3737 OM 3737 OM OM1 3737 -0.550000 15.99940
3738 OM 3738 OM OM1 3738 -0.550000 15.99940
3739 OM 3739 OM OM1 3739 -0.550000 15.99940
3740 OM 3740 OM OM1 3740 -0.550000 15.99940
3741 OM 3741 OM OM1 3741 -0.550000 15.99940
3742 OM 3742 OM OM1 3742 -0.550000 15.99940
3743 OM 3743 OM OM1 3743 -0.550000 15.99940
3744 OM 3744 OM OM1 3744 -0.550000 15.99940
3745 OM 3745 OM OM1 3745 -0.550000 15.99940
3746 OM 3746 OM OM1 3746 -0.550000 15.99940
3747 OM 3747 OM OM1 3747 -0.550000 15.99940
3748 OM 3748 OM OM1 3748 -0.550000 15.99940
3749 OM 3749 OM OM1 3749 -0.550000 15.99940
3750 OM 3750 OM OM1 3750 -0.550000 15.99940
3751 OM 3751 OM OM1 3751 -0.550000 15.99940
3752 OM 3752 OM OM1 3752 -0.550000 15.99940
3753 OM 3753 OM OM1 3753 -0.550000 15.99940
3754 OM 3754 OM OM1 3754 -0.550000 15.99940
3755 OM 3755 OM OM1 3755 -0.550000 15.99940
3756 OM 3756 OM OM1 3756 -0.550000 15.99940
3757 OM 3757 OM OM1 3757 -0.550000 15.99940
3758 OM 3758 OM OM1 3758 -0.550000 15.99940
3759 OM 3759 OM OM1 3759 -0.550000 15.99940
3760 OM 3760 OM OM1 3760 -0.550000 15.99940
3761 OM 3761 OM OM1 3761 -0.550000 15.99940
3762 OM 3762 OM OM1 3762 -0.550000 15.99940
3763 OM 3763 OM OM1 3763 -0.550000 15.99940
3764 OM 3764 OM OM1 3764 -0.550000 15.99940
3765 OM 3765 OM OM1 3765 -0.550000 15.99940
3766 OM 3766 OM OM1 3766 -0.550000 15.99940
3767 OM 3767 OM OM1 3767 -0.550000 15.99940
3768 OM 3768 OM OM1 3768 -0.550000 15.99940
3769 OM 3769 OM OM1 3769 -0.550000 15.99940
3770 OM 3770 OM OM1 3770 -0.550000 15.99940
3771 OM 3771 OM OM1 3771 -0.550000 15.99940
3772 OM 3772 OM OM1 3772 -0.550000 15.99940
3773 OM 3773 OM OM1 3773 -0.550000 15.99940
3774 OM 3774 OM OM1 3774 -0.550000 15.99940
3775 OM 3775 OM OM1 3775 -0.550000 15.99940
3776 OM 3776 OM OM1 3776 -0.550000 15.99940
3777 OM 3777 OM OM1 3777 -0.550000 15.99940
3778 OM 3778 OM OM1 3778 -0.550000 15.99940
3779 OM 3779 OM OM1 3779 -0.550000 15.99940
3780 OM 3780 OM OM1 3780 -0.550000 15.99940
3781 OM 3781 OM OM1 3781 -0.550000 15.99940
3782 OM 3782 OM OM1 3782 -0.550000 15.99940
3783 OM 3783 OM OM1 3783 -0.550000 15.99940
3784 OM 3784 OM OM1 3784 -0.550000 15.99940
3785 OM 3785 OM OM1 3785 -0.550000 15.99940
3786 OM 3786 OM OM1 3786 -0.550000 15.99940
3787 OM 3787 OM OM1 3787 -0.550000 15.99940
3788 OM 3788 OM OM1 3788 -0.550000 15.99940
3789 OM 3789 OM OM1 3789 -0.550000 15.99940
3790 OM 3790 OM OM1 3790 -0.550000 15.99940
3791 OM 3791 OM OM1 3791 -0.550000 15.99940
3792 OM 3792 OM OM1 3792 -0.550000 15.99940
3793 OM 3793 OM OM1 3793 -0.550000 15.99940
3794 OM 3794 OM OM1 3794 -0.550000 15.99940
3795 OM 3795 OM OM1 3795 -0.550000 15.99940
3796 OM 3796 OM OM1 3796 -0.550000 15.99940
3797 OM 3797 OM OM1 3797 -0.550000 15.99940
3798 OM 3798 OM OM1 3798 -0.550000 15.99940
3799 OM 3799 OM OM1 3799 -0.550000 15.99940
3800 OM 3800 OM OM1 3800 -0.550000 15.99940
3801 OM 3801 OM OM1 3801 -0.550000 15.99940
3802 OM 3802 OM OM1 3802 -0.550000 15.99940
3803 OM 3803 OM OM1 3803 -0.550000 15.99940
3804 OM 3804 OM OM1 3804 -0.550000 15.99940
3805 OM 3805 OM OM1 3805 -0.550000 15.99940
3806 OM 3806 OM OM1 3806 -0.550000 15.99940
3807 OM 3807 OM OM1 3807 -0.550000 15.99940
3808 OM 3808 OM OM1 3808 -0.550000 15.99940
3809 OM 3809 OM OM1 3809 -0.550000 15.99940
3810 OM 3810 OM OM1 3810 -0.550000 15.99940
3811 OM 3811 OM OM1 3811 -0.550000 15.99940
3812 OM 3812 OM OM1 3812 -0.550000 15.99940
3813 OM 3813 OM OM1 3813 -0.550000 15.99940
3814 OM 3814 OM OM1 3814 -0.550000 15.99940
3815 OM 3815 OM OM1 3815 -0.550000 15.99940
3816 OM 3816 OM OM1 3816 -0.550000 15.99940
3817 OM 3817 OM OM1 3817 -0.550000 15.99940
3818 OM 3818 OM OM1 3818 -0.550000 15.99940
3819 OM 3819 OM OM1 3819 -0.550000 15.99940
3820 OM 3820 OM OM1 3820 -0.550000 15.99940
3821 OM 3821 OM OM1 3821 -0.550000 15.99940
3822 OM 3822 OM OM1 3822 -0.550000 15.99940
3823 OM 3823 OM OM1 3823 -0.550000 15.99940
3824 OM 3824 OM OM1 3824 -0.550000 15.99940
3825 OM 3825 OM OM1 3825 -0.550000 15.99940
3826 OM 3826 OM OM1 3826 -0.550000 15.99940
3827 OM 3827 OM OM1 3827 -0.550000 15.99940
3828 OM 3828 OM OM1 3828 -0.550000 15.99940
3829 OM 3829 OM OM1 3829 -0.550000 15.99940
3830 OM 3830 OM OM1 3830 -0.550000 15.99940
3831 OM 3831 OM OM1 3831 -0.550000 15.99940
3832 OM 3832 OM OM1 3832 -0.550000 15.99940
3833 OM 3833 OM OM1 3833 -0.550000 15.99940
3834 OM 3834 OM OM1 3834 -0.550000 15.99940
3835 OM 3835 OM OM1 3835 -0.550000 15.99940
3836 OM 3836 OM OM1 3836 -0.550000 15.99940
3837 OM 3837 OM OM1 3837 -0.550000 15.99940
3838 OM 3838 OM OM1 3838 -0.550000 15.99940
3839 OM 3839 OM OM1 3839 -0.550000 15.99940
3840 OM 3840 OM OM1 3840 -0.550000 15.99940
3841 OM 3841 OM OM1 3841 -0.550000 15.99940
3842 OM 3842 OM OM1 3842 -0.550000 15.99940
3843 OM 3843 OM OM1 3843 -0.550000 15.99940
3844 OM 3844 OM OM1 3844 -0.550000 15.99940
3845 OM 3845 OM OM1 3845 -0.550000 15.99940
3846 OM 3846 OM OM1 3846 -0.550000 15.99940
3847 OM 3847 OM OM1 3847 -0.550000 15.99940
3848 OM 3848 OM OM1 3848 -0.550000 15.99940
3849 OM 3849 OM OM1 3849 -0.550000 15.99940
3850 OM 3850 OM OM1 3850 -0.550000 15.99940
3851 OM 3851 OM OM1 3851 -0.550000 15.99940
3852 OM 3852 OM OM1 3852 -0.550000 15.99940
3853 OM 3853 OM OM1 3853 -0.550000 15.99940
3854 OM 3854 OM OM1 3854 -0.550000 15.99940
3855 OM 3855 OM OM1 3855 -0.550000 15.99940
3856 OM 3856 OM OM1 3856 -0.550000 15.99940
3857 OM 3857 OM OM1 3857 -0.550000 15.99940
3858 OM 3858 OM OM1 3858 -0.550000 15.99940
3859 OM 3859 OM OM1 3859 -0.550000 15.99940
3860 OM 3860 OM OM1 3860 -0.550000 15.99940
3861 OM 3861 OM OM1 3861 -0.550000 15.99940
3862 OM 3862 OM OM1 3862 -0.550000 15.99940
3863 OM 3863 OM OM1 3863 -0.550000 15.99940
3864 OM 3864 OM OM1 3864 -0.550000 15.99940
3865 OM 3865 OM OM1 3865 -0.550000 15.99940
3866 OM 3866 OM OM1 3866 -0.550000 15.99940
3867 OM 3867 OM OM1 3867 -0.550000 15.99940
3868 OM 3868 OM OM1 3868 -0.550000 15.99940
3869 OM 3869 OM OM1 3869 -0.550000 15.99940
3870 OM 3870 OM OM1 3870 -0.550000 15.99940
3871 OM 3871 OM OM1 3871 -0.550000 15.99940
3872 OM 3872 OM OM1 3872 -0.550000 15.99940
3873 OM 3873 OM OM1 3873 -0.550000 15.99940
3874 OM 3874 OM OM1 3874 -0.550000 15.99940
3875 OM 3875 OM OM1 3875 -0.550000 15.99940
3876 OM 3876 OM OM1 3876 -0.550000 15.99940
3877 OM 3877 OM OM1 3877 -0.550000 15.99940
3878 OM 3878 OM OM1 3878 -0.550000 15.99940
3879 OM 3879 OM OM1 3879 -0.550000 15.99940
3880 OM 3880 OM OM1 3880 -0.550000 15.99940
3881 OM 3881 OM OM1 3881 -0.550000 15.99940
3882 OM 3882 OM OM1 3882 -0.550000 15.99940
3883 OM 3883 OM OM1 3883 -0.550000 15.99940
3884 OM 3884 OM OM1 3884 -0.550000 15.99940
3885 OM 3885 OM OM1 3885 -0.550000 15.99940
3886 OM 3886 OM OM1 3886 -0.550000 15.99940
3887 OM 3887 OM OM1 3887 -0.550000 15.99940
3888 OM 3888 OM OM1 3888 -0.550000 15.99940
3889 OM 3889 OM OM1 3889 -0.550000 15.99940
3890 OM 3890 OM OM1 3890 -0.550000 15.99940
3891 OM 3891 OM OM1 3891 -0.550000 15.99940
3892 OM 3892 OM OM1 3892 -0.550000 15.99940
3893 OM 3893 OM OM1 3893 -0.550000 15.99940
3894 OM 3894 OM OM1 3894 -0.550000 15.99940
3895 OM 3895 OM OM1 3895 -0.550000 15.99940
3896 OM 3896 OM OM1 3896 -0.550000 15.99940
3897 OM 3897 OM OM1 3897 -0.550000 15.99940
3898 OM 3898 OM OM1 3898 -0.550000 15.99940
3899 OM 3899 OM OM1 3899 -0.550000 15.99940
3900 OM 3900 OM OM1 3900 -0.550000 15.99940
3901 OM 3901 OM OM1 3901 -0.550000 15.99940
3902 OM 3902 OM OM1 3902 -0.550000 15.99940
3903 OM 3903 OM OM1 3903 -0.550000 15.99940
3904 OM 3904 OM OM1 3904 -0.550000 15.99940
3905 OM 3905 OM OM1 3905 -0.550000 15.99940
3906 OM 3906 OM OM1 3906 -0.550000 15.99940
3907 OM 3907 OM OM1 3907 -0.550000 15.99940
3908 OM 3908 OM OM1 3908 -0.550000 15.99940
3909 OM 3909 OM OM1 3909 -0.550000 15.99940
3910 OM 3910 OM OM1 3910 -0.550000 15.99940
3911 OM 3911 OM OM1 3911 -0.550000 15.99940
3912 OM 3912 OM OM1 3912 -0.550000 15.99940
3913 OM 3913 OM OM1 3913 -0.550000 15.99940
3914 OM 3914 OM OM1 3914 -0.550000 15.99940
3915 OM 3915 OM OM1 3915 -0.550000 15.99940
3916 OM 3916 OM OM1 3916 -0.550000 15.99940
3917 OM 3917 OM OM1 3917 -0.550000 15.99940
3918 OM 3918 OM OM1 3918 -0.550000 15.99940
3919 OM 3919 OM OM1 3919 -0.550000 15.99940
3920 OM 3920 OM OM1 3920 -0.550000 15.99940
3921 OM 3921 OM OM1 3921 -0.550000 15.99940
3922 OM 3922 OM OM1 3922 -0.550000 15.99940
3923 OM 3923 OM OM1 3923 -0.550000 15.99940
3924 OM 3924 OM OM1 3924 -0.550000 15.99940
3925 OM 3925 OM OM1 3925 -0.550000 15.99940
3926 OM 3926 OM OM1 3926 -0.550000 15.99940
3927 OM 3927 OM OM1 3927 -0.550000 15.99940
3928 OM 3928 OM OM1 3928 -0.550000 15.99940
3929 OM 3929 OM OM1 3929 -0.550000 15.99940
3930 OM 3930 OM OM1 3930 -0.550000 15.99940
3931 OM 3931 OM OM1 3931 -0.550000 15.99940
3932 OM 3932 OM OM1 3932 -0.550000 15.99940
3933 OM 3933 OM OM1 3933 -0.550000 15.99940
3934 OM 3934 OM OM1 3934 -0.550000 15.99940
3935 OM 3935 OM OM1 3935 -0.550000 15.99940
3936 OM 3936 OM OM1 3936 -0.550000 15.99940
3937 OM 3937 OM OM1 3937 -0.550000 15.99940
3938 OM 3938 OM OM1 3938 -0.550000 15.99940
3939 OM 3939 OM OM1 3939 -0.550000 15.99940
3940 OM 3940 OM OM1 3940 -0.550000 15.99940
3941 OM 3941 OM OM1 3941 -0.550000 15.99940
3942 OM 3942 OM OM1 3942 -0.550000 15.99940
3943 OM 3943 OM OM1 3943 -0.550000 15.99940
3944 OM 3944 OM OM1 3944 -0.550000 15.99940
3945 OM 3945 OM OM1 3945 -0.550000 15.99940
3946 OM 3946 OM OM1 3946 -0.550000 15.99940
3947 OM 3947 OM OM1 3947 -0.550000 15.99940
3948 OM 3948 OM OM1 3948 -0.550000 15.99940
3949 OM 3949 OM OM1 3949 -0.550000 15.99940
3950 OM 3950 OM OM1 3950 -0.550000 15.99940
3951 OM 3951 OM OM1 3951 -0.550000 15.99940
3952 OM 3952 OM OM1 3952 -0.550000 15.99940
3953 OM 3953 OM OM1 3953 -0.550000 15.99940
3954 OM 3954 OM OM1 3954 -0.550000 15.99940
3955 OM 3955 OM OM1 3955 -0.550000 15.99940
3956 OM 3956 OM OM1 3956 -0.550000 15.99940
3957 OM 3957 OM OM1 3957 -0.550000 15.99940
3958 OM 3958 OM OM1 3958 -0.550000 15.99940
3959 OM 3959 OM OM1 3959 -0.550000 15.99940
3960 OM 3960 OM OM1 3960 -0.550000 15.99940
3961 OM 3961 OM OM1 3961 -0.550000 15.99940
3962 OM 3962 OM OM1 3962 -0.550000 15.99940
3963 OM 3963 OM OM1 3963 -0.550000 15.99940
3964 OM 3964 OM OM1 3964 -0.550000 15.99940
3965 OM 3965 OM OM1 3965 -0.550000 15.99940
3966 OM 3966 OM OM1 3966 -0.550000 15.99940
3967 OM 3967 OM OM1 3967 -0.550000 15.99940
3968 OM 3968 OM OM1 3968 -0.550000 15.99940
3969 OM 3969 OM OM1 3969 -0.550000 15.99940
3970 OM 3970 OM OM1 3970 -0.550000 15.99940
3971 OM 3971 OM OM1 3971 -0.550000 15.99940
3972 OM 3972 OM OM1 3972 -0.550000 15.99940
3973 OM 3973 OM OM1 3973 -0.550000 15.99940
3974 OM 3974 OM OM1 3974 -0.550000 15.99940
3975 OM 3975 OM OM1 3975 -0.550000 15.99940
3976 OM 3976 OM OM1 3976 -0.550000 15.99940
3977 OM 3977 OM OM1 3977 -0.550000 15.99940
3978 OM 3978 OM OM1 3978 -0.550000 15.99940
3979 OM 3979 OM OM1 3979 -0.550000 15.99940
3980 OM 3980 OM OM1 3980 -0.550000 15.99940
3981 OM 3981 OM OM1 3981 -0.550000 15.99940
3982 OM 3982 OM OM1 3982 -0.550000 15.99940
3983 OM 3983 OM OM1 3983 -0.550000 15.99940
3984 OM 3984 OM OM1 3984 -0.550000 15.99940
3985 OM 3985 OM OM1 3985 -0.550000 15.99940
3986 OM 3986 OM OM1 3986 -0.550000 15.99940
3987 OM 3987 OM OM1 3987 -0.550000 15.99940
3988 OM 3988 OM OM1 3988 -0.550000 15.99940
3989 OM 3989 OM OM1 3989 -0.550000 15.99940
3990 OM 3990 OM OM1 3990 -0.550000 15.99940
3991 OM 3991 OM OM1 3991 -0.550000 15.99940
3992 OM 3992 OM OM1 3992 -0.550000 15.99940
3993 OM 3993 OM OM1 3993 -0.550000 15.99940
3994 OM 3994 OM OM1 3994 -0.550000 15.99940
3995 OM 3995 OM OM1 3995 -0.550000 15.99940
3996 OM 3996 OM OM1 3996 -0.550000 15.99940
3997 OM 3997 OM OM1 3997 -0.550000 15.99940
3998 OM 3998 OM OM1 3998 -0.550000 15.99940
3999 OM 3999 OM OM1 3999 -0.550000 15.99940
4000 OM 4000 OM OM1 4000 -0.550000 15.99940
4001 OM 4001 OM OM1 4001 -0.550000 15.99940
4002 OM 4002 OM OM1 4002 -0.550000 15.99940
4003 OM 4003 OM OM1 4003 -0.550000 15.99940
4004 OM 4004 OM OM1 4004 -0.550000 15.99940
4005 OM 4005 OM OM1 4005 -0.550000 15.99940
4006 OM 4006 OM OM1 4006 -0.550000 15.99940
4007 OM 4007 OM OM1 4007 -0.550000 15.99940
4008 OM 4008 OM OM1 4008 -0.550000 15.99940
4009 OM 4009 OM OM1 4009 -0.550000 15.99940
4010 OM 4010 OM OM1 4010 -0.550000 15.99940
4011 OM 4011 OM OM1 4011 -0.550000 15.99940
4012 OM 4012 OM OM1 4012 -0.550000 15.99940
4013 OM 4013 OM OM1 4013 -0.550000 15.99940
4014 OM 4014 OM OM1 4014 -0.550000 15.99940
4015 OM 4015 OM OM1 4015 -0.550000 15.99940
4016 OM 4016 OM OM1 4016 -0.550000 15.99940
4017 OM 4017 OM OM1 4017 -0.550000 15.99940
4018 OM 4018 OM OM1 4018 -0.550000 15.99940
4019 OM 4019 OM OM1 4019 -0.550000 15.99940
4020 OM 4020 OM OM1 4020 -0.550000 15.99940
4021 OM 4021 OM OM1 4021 -0.550000 15.99940
4022 OM 4022 OM OM1 4022 -0.550000 15.99940
4023 OM 4023 OM OM1 4023 -0.550000 15.99940
4024 OM 4024 OM OM1 4024 -0.550000 15.99940
4025 OM 4025 OM OM1 4025 -0.550000 15.99940
4026 OM 4026 OM OM1 4026 -0.550000 15.99940
4027 OM 4027 OM OM1 4027 -0.550000 15.99940
4028 OM 4028 OM OM1 4028 -0.550000 15.99940
4029 OM 4029 OM OM1 4029 -0.550000 15.99940
4030 OM 4030 OM OM1 4030 -0.550000 15.99940
4031 OM 4031 OM OM1 4031 -0.550000 15.99940
4032 OM 4032 OM OM1 4032 -0.550000 15.99940
4033 OM 4033 OM OM1 4033 -0.550000 15.99940
4034 OM 4034 OM OM1 4034 -0.550000 15.99940
4035 OM 4035 OM OM1 4035 -0.550000 15.99940
4036 OM 4036 OM OM1 4036 -0.550000 15.99940
4037 OM 4037 OM OM1 4037 -0.550000 15.99940
4038 OM 4038 OM OM1 4038 -0.550000 15.99940
4039 OM 4039 OM OM1 4039 -0.550000 15.99940
4040 OM 4040 OM OM1 4040 -0.550000 15.99940
4041 OM 4041 OM OM1 4041 -0.550000 15.99940
4042 OM 4042 OM OM1 4042 -0.550000 15.99940
4043 OM 4043 OM OM1 4043 -0.550000 15.99940
4044 OM 4044 OM OM1 4044 -0.550000 15.99940
4045 OM 4045 OM OM1 4045 -0.550000 15.99940
4046 OM 4046 OM OM1 4046 -0.550000 15.99940
4047 OM 4047 OM OM1 4047 -0.550000 15.99940
4048 OM 4048 OM OM1 4048 -0.550000 15.99940
4049 OM 4049 OM OM1 4049 -0.550000 15.99940
4050 OM 4050 OM OM1 4050 -0.550000 15.99940
4051 OM 4051 OM OM1 4051 -0.550000 15.99940
4052 OM 4052 OM OM1 4052 -0.550000 15.99940
4053 OM 4053 OM OM1 4053 -0.550000 15.99940
4054 OM 4054 OM OM1 4054 -0.550000 15.99940
4055 OM 4055 OM OM1 4055 -0.550000 15.99940
4056 OM 4056 OM OM1 4056 -0.550000 15.99940
4057 OM 4057 OM OM1 4057 -0.550000 15.99940
4058 OM 4058 OM OM1 4058 -0.550000 15.99940
4059 OM 4059 OM OM1 4059 -0.550000 15.99940
4060 OM 4060 OM OM1 4060 -0.550000 15.99940
4061 OM 4061 OM OM1 4061 -0.550000 15.99940
4062 OM 4062 OM OM1 4062 -0.550000 15.99940
4063 OM 4063 OM OM1 4063 -0.550000 15.99940
4064 OM 4064 OM OM1 4064 -0.550000 15.99940
4065 OM 4065 OM OM1 4065 -0.550000 15.99940
4066 OM 4066 OM OM1 4066 -0.550000 15.99940
4067 OM 4067 OM OM1 4067 -0.550000 15.99940
4068 OM 4068 OM OM1 4068 -0.550000 15.99940
4069 OM 4069 OM OM1 4069 -0.550000 15.99940
4070 OM 4070 OM OM1 4070 -0.550000 15.99940
4071 OM 4071 OM OM1 4071 -0.550000 15.99940
4072 OM 4072 OM OM1 4072 -0.550000 15.99940
4073 OM 4073 OM OM1 4073 -0.550000 15.99940
4074 OM 4074 OM OM1 4074 -0.550000 15.99940
4075 OM 4075 OM OM1 4075 -0.550000 15.99940
4076 OM 4076 OM OM1 4076 -0.550000 15.99940
4077 OM 4077 OM OM1 4077 -0.550000 15.99940
4078 OM 4078 OM OM1 4078 -0.550000 15.99940
4079 OM 4079 OM OM1 4079 -0.550000 15.99940
4080 OM 4080 OM OM1 4080 -0.550000 15.99940
4081 OM 4081 OM OM1 4081 -0.550000 15.99940
4082 OM 4082 OM OM1 4082 -0.550000 15.99940
4083 OM 4083 OM OM1 4083 -0.550000 15.99940
4084 OM 4084 OM OM1 4084 -0.550000 15.99940
4085 OM 4085 OM OM1 4085 -0.550000 15.99940
4086 OM 4086 OM OM1 4086 -0.550000 15.99940
4087 OM 4087 OM OM1 4087 -0.550000 15.99940
4088 OM 4088 OM OM1 4088 -0.550000 15.99940
4089 OM 4089 OM OM1 4089 -0.550000 15.99940
4090 OM 4090 OM OM1 4090 -0.550000 15.99940
4091 OM 4091 OM OM1 4091 -0.550000 15.99940
4092 OM 4092 OM OM1 4092 -0.550000 15.99940
4093 OM 4093 OM OM1 4093 -0.550000 15.99940
4094 OM 4094 OM OM1 4094 -0.550000 15.99940
4095 OM 4095 OM OM1 4095 -0.550000 15.99940
4096 OM 4096 OM OM1 4096 -0.550000 15.99940
4097 OM 4097 OM OM1 4097 -0.550000 15.99940
4098 OM 4098 OM OM1 4098 -0.550000 15.99940
4099 OM 4099 OM OM1 4099 -0.550000 15.99940
4100 OM 4100 OM OM1 4100 -0.550000 15.99940
4101 OM 4101 OM OM1 4101 -0.550000 15.99940
4102 OM 4102 OM OM1 4102 -0.550000 15.99940
4103 OM 4103 OM OM1 4103 -0.550000 15.99940
4104 OM 4104 OM OM1 4104 -0.550000 15.99940
4105 OM 4105 OM OM1 4105 -0.550000 15.99940
4106 OM 4106 OM OM1 4106 -0.550000 15.99940
4107 OM 4107 OM OM1 4107 -0.550000 15.99940
4108 OM 4108 OM OM1 4108 -0.550000 15.99940
4109 OM 4109 OM OM1 4109 -0.550000 15.99940
4110 OM 4110 OM OM1 4110 -0.550000 15.99940
4111 OM 4111 OM OM1 4111 -0.550000 15.99940
4112 OM 4112 OM OM1 4112 -0.550000 15.99940
4113 OM 4113 OM OM1 4113 -0.550000 15.99940
4114 OM 4114 OM OM1 4114 -0.550000 15.99940
4115 OM 4115 OM OM1 4115 -0.550000 15.99940
4116 OM 4116 OM OM1 4116 -0.550000 15.99940
4117 OM 4117 OM OM1 4117 -0.550000 15.99940
4118 OM 4118 OM OM1 4118 -0.550000 15.99940
4119 OM 4119 OM OM1 4119 -0.550000 15.99940
4120 OM 4120 OM OM1 4120 -0.550000 15.99940
4121 OM 4121 OM OM1 4121 -0.550000 15.99940
4122 OM 4122 OM OM1 4122 -0.550000 15.99940
4123 OM 4123 OM OM1 4123 -0.550000 15.99940
4124 OM 4124 OM OM1 4124 -0.550000 15.99940
4125 OM 4125 OM OM1 4125 -0.550000 15.99940
4126 OM 4126 OM OM1 4126 -0.550000 15.99940
4127 OM 4127 OM OM1 4127 -0.550000 15.99940
4128 OM 4128 OM OM1 4128 -0.550000 15.99940
4129 OM 4129 OM OM1 4129 -0.550000 15.99940
4130 OM 4130 OM OM1 4130 -0.550000 15.99940
4131 OM 4131 OM OM1 4131 -0.550000 15.99940
4132 OM 4132 OM OM1 4132 -0.550000 15.99940
4133 OM 4133 OM OM1 4133 -0.550000 15.99940
4134 OM 4134 OM OM1 4134 -0.550000 15.99940
4135 OM 4135 OM OM1 4135 -0.550000 15.99940
4136 OM 4136 OM OM1 4136 -0.550000 15.99940
4137 OM 4137 OM OM1 4137 -0.550000 15.99940
4138 OM 4138 OM OM1 4138 -0.550000 15.99940
4139 OM 4139 OM OM1 4139 -0.550000 15.99940
4140 OM 4140 OM OM1 4140 -0.550000 15.99940
4141 OM 4141 OM OM1 4141 -0.550000 15.99940
4142 OM 4142 OM OM1 4142 -0.550000 15.99940
4143 OM 4143 OM OM1 4143 -0.550000 15.99940
4144 OM 4144 OM OM1 4144 -0.550000 15.99940
4145 OM 4145 OM OM1 4145 -0.550000 15.99940
4146 OM 4146 OM OM1 4146 -0.550000 15.99940
4147 OM 4147 OM OM1 4147 -0.550000 15.99940
4148 OM 4148 OM OM1 4148 -0.550000 15.99940
4149 OM 4149 OM OM1 4149 -0.550000 15.99940
4150 OM 4150 OM OM1 4150 -0.550000 15.99940
4151 OM 4151 OM OM1 4151 -0.550000 15.99940
4152 OM 4152 OM OM1 4152 -0.550000 15.99940
4153 OM 4153 OM OM1 4153 -0.550000 15.99940
4154 OM 4154 OM OM1 4154 -0.550000 15.99940
4155 OM 4155 OM OM1 4155 -0.550000 15.99940
4156 OM 4156 OM OM1 4156 -0.550000 15.99940
4157 OM 4157 OM OM1 4157 -0.550000 15.99940
4158 OM 4158 OM OM1 4158 -0.550000 15.99940
4159 OM 4159 OM OM1 4159 -0.550000 15.99940
4160 OM 4160 OM OM1 4160 -0.550000 15.99940
4161 OM 4161 OM OM1 4161 -0.550000 15.99940
4162 OM 4162 OM OM1 4162 -0.550000 15.99940
4163 OM 4163 OM OM1 4163 -0.550000 15.99940
4164 OM 4164 OM OM1 4164 -0.550000 15.99940
4165 OM 4165 OM OM1 4165 -0.550000 15.99940
4166 OM 4166 OM OM1 4166 -0.550000 15.99940
4167 OM 4167 OM OM1 4167 -0.550000 15.99940
4168 OM 4168 OM OM1 4168 -0.550000 15.99940
4169 OM 4169 OM OM1 4169 -0.550000 15.99940
4170 OM 4170 OM OM1 4170 -0.550000 15.99940
4171 OM 4171 OM OM1 4171 -0.550000 15.99940
4172 OM 4172 OM OM1 4172 -0.550000 15.99940
4173 OM 4173 OM OM1 4173 -0.550000 15.99940
4174 OM 4174 OM OM1 4174 -0.550000 15.99940
4175 OM 4175 OM OM1 4175 -0.550000 15.99940
4176 OM 4176 OM OM1 4176 -0.550000 15.99940
4177 OM 4177 OM OM1 4177 -0.550000 15.99940
4178 OM 4178 OM OM1 4178 -0.550000 15.99940
4179 OM 4179 OM OM1 4179 -0.550000 15.99940
4180 OM 4180 OM OM1 4180 -0.550000 15.99940
4181 OM 4181 OM OM1 4181 -0.550000 15.99940
4182 OM 4182 OM OM1 4182 -0.550000 15.99940
4183 OM 4183 OM OM1 4183 -0.550000 15.99940
4184 OM 4184 OM OM1 4184 -0.550000 15.99940
4185 OM 4185 OM OM1 4185 -0.550000 15.99940
4186 OM 4186 OM OM1 4186 -0.550000 15.99940
4187 OM 4187 OM OM1 4187 -0.550000 15.99940
4188 OM 4188 OM OM1 4188 -0.550000 15.99940
4189 OM 4189 OM OM1 4189 -0.550000 15.99940
4190 OM 4190 OM OM1 4190 -0.550000 15.99940
4191 OM 4191 OM OM1 4191 -0.550000 15.99940
4192 OM 4192 OM OM1 4192 -0.550000 15.99940
4193 OM 4193 OM OM1 4193 -0.550000 15.99940
4194 OM 4194 OM OM1 4194 -0.550000 15.99940
4195 OM 4195 OM OM1 4195 -0.550000 15.99940
4196 OM 4196 OM OM1 4196 -0.550000 15.99940
4197 OM 4197 OM OM1 4197 -0.550000 15.99940
4198 OM 4198 OM OM1 4198 -0.550000 15.99940
4199 OM 4199 OM OM1 4199 -0.550000 15.99940
4200 OM 4200 OM OM1 4200 -0.550000 15.99940
4201 OM 4201 OM OM1 4201 -0.550000 15.99940
4202 OM 4202 OM OM1 4202 -0.550000 15.99940
4203 OM 4203 OM OM1 4203 -0.550000 15.99940
4204 OM 4204 OM OM1 4204 -0.550000 15.99940
4205 OM 4205 OM OM1 4205 -0.550000 15.99940
4206 OM 4206 OM OM1 4206 -0.550000 15.99940
4207 OM 4207 OM OM1 4207 -0.550000 15.99940
4208 OM 4208 OM OM1 4208 -0.550000 15.99940
4209 OM 4209 OM OM1 4209 -0.550000 15.99940
4210 OM 4210 OM OM1 4210 -0.550000 15.99940
4211 OM 4211 OM OM1 4211 -0.550000 15.99940
4212 OM 4212 OM OM1 4212 -0.550000 15.99940
4213 OM 4213 OM OM1 4213 -0.550000 15.99940
4214 OM 4214 OM OM1 4214 -0.550000 15.99940
4215 OM 4215 OM OM1 4215 -0.550000 15.99940
4216 OM 4216 OM OM1 4216 -0.550000 15.99940
4217 OM 4217 OM OM1 4217 -0.550000 15.99940
4218 OM 4218 OM OM1 4218 -0.550000 15.99940
4219 OM 4219 OM OM1 4219 -0.550000 15.99940
4220 OM 4220 OM OM1 4220 -0.550000 15.99940
4221 OM 4221 OM OM1 4221 -0.550000 15.99940
4222 OM 4222 OM OM1 4222 -0.550000 15.99940
4223 OM 4223 OM OM1 4223 -0.550000 15.99940
4224 OM 4224 OM OM1 4224 -0.550000 15.99940
4225 OM 4225 OM OM1 4225 -0.550000 15.99940
4226 OM 4226 OM OM1 4226 -0.550000 15.99940
4227 OM 4227 OM OM1 4227 -0.550000 15.99940
4228 OM 4228 OM OM1 4228 -0.550000 15.99940
4229 OM 4229 OM OM1 4229 -0.550000 15.99940
4230 OM 4230 OM OM1 4230 -0.550000 15.99940
4231 OM 4231 OM OM1 4231 -0.550000 15.99940
4232 OM 4232 OM OM1 4232 -0.550000 15.99940
4233 OM 4233 OM OM1 4233 -0.550000 15.99940
4234 OM 4234 OM OM1 4234 -0.550000 15.99940
4235 OM 4235 OM OM1 4235 -0.550000 15.99940
4236 OM 4236 OM OM1 4236 -0.550000 15.99940
4237 OM 4237 OM OM1 4237 -0.550000 15.99940
4238 OM 4238 OM OM1 4238 -0.550000 15.99940
4239 OM 4239 OM OM1 4239 -0.550000 15.99940
4240 OM 4240 OM OM1 4240 -0.550000 15.99940
4241 OM 4241 OM OM1 4241 -0.550000 15.99940
4242 OM 4242 OM OM1 4242 -0.550000 15.99940
4243 OM 4243 OM OM1 4243 -0.550000 15.99940
4244 OM 4244 OM OM1 4244 -0.550000 15.99940
4245 OM 4245 OM OM1 4245 -0.550000 15.99940
4246 OM 4246 OM OM1 4246 -0.550000 15.99940
4247 OM 4247 OM OM1 4247 -0.550000 15.99940
4248 OM 4248 OM OM1 4248 -0.550000 15.99940
4249 OM 4249 OM OM1 4249 -0.550000 15.99940
4250 OM 4250 OM OM1 4250 -0.550000 15.99940
4251 OM 4251 OM OM1 4251 -0.550000 15.99940
4252 OM 4252 OM OM1 4252 -0.550000 15.99940
4253 OM 4253 OM OM1 4253 -0.550000 15.99940
4254 OM 4254 OM OM1 4254 -0.550000 15.99940
4255 OM 4255 OM OM1 4255 -0.550000 15.99940
4256 OM 4256 OM OM1 4256 -0.550000 15.99940
4257 OM 4257 OM OM1 4257 -0.550000 15.99940
4258 OM 4258 OM OM1 4258 -0.550000 15.99940
4259 OM 4259 OM OM1 4259 -0.550000 15.99940
4260 OM 4260 OM OM1 4260 -0.550000 15.99940
4261 OM 4261 OM OM1 4261 -0.550000 15.99940
4262 OM 4262 OM OM1 4262 -0.550000 15.99940
4263 OM 4263 OM OM1 4263 -0.550000 15.99940
4264 OM 4264 OM OM1 4264 -0.550000 15.99940
4265 OM 4265 OM OM1 4265 -0.550000 15.99940
4266 OM 4266 OM OM1 4266 -0.550000 15.99940
4267 OM 4267 OM OM1 4267 -0.550000 15.99940
4268 OM 4268 OM OM1 4268 -0.550000 15.99940
4269 OM 4269 OM OM1 4269 -0.550000 15.99940
4270 OM 4270 OM OM1 4270 -0.550000 15.99940
4271 OM 4271 OM OM1 4271 -0.550000 15.99940
4272 OM 4272 OM OM1 4272 -0.550000 15.99940
4273 OM 4273 OM OM1 4273 -0.550000 15.99940
4274 OM 4274 OM OM1 4274 -0.550000 15.99940
4275 OM 4275 OM OM1 4275 -0.550000 15.99940
4276 OM 4276 OM OM1 4276 -0.550000 15.99940
4277 OM 4277 OM OM1 4277 -0.550000 15.99940
4278 OM 4278 OM OM1 4278 -0.550000 15.99940
4279 OM 4279 OM OM1 4279 -0.550000 15.99940
4280 OM 4280 OM OM1 4280 -0.550000 15.99940
4281 OM 4281 OM OM1 4281 -0.550000 15.99940
4282 OM 4282 OM OM1 4282 -0.550000 15.99940
4283 OM 4283 OM OM1 4283 -0.550000 15.99940
4284 OM 4284 OM OM1 4284 -0.550000 15.99940
4285 OM 4285 OM OM1 4285 -0.550000 15.99940
4286 OM 4286 OM OM1 4286 -0.550000 15.99940
4287 OM 4287 OM OM1 4287 -0.550000 15.99940
4288 OM 4288 OM OM1 4288 -0.550000 15.99940
4289 OM 4289 OM OM1 4289 -0.550000 15.99940
4290 OM 4290 OM OM1 4290 -0.550000 15.99940
4291 OM 4291 OM OM1 4291 -0.550000 15.99940
4292 OM 4292 OM OM1 4292 -0.550000 15.99940
4293 OM 4293 OM OM1 4293 -0.550000 15.99940
4294 OM 4294 OM OM1 4294 -0.550000 15.99940
4295 OM 4295 OM OM1 4295 -0.550000 15.99940
4296 OM 4296 OM OM1 4296 -0.550000 15.99940
4297 OM 4297 OM OM1 4297 -0.550000 15.99940
4298 OM 4298 OM OM1 4298 -0.550000 15.99940
4299 OM 4299 OM OM1 4299 -0.550000 15.99940
4300 OM 4300 OM OM1 4300 -0.550000 15.99940
4301 OM 4301 OM OM1 4301 -0.550000 15.99940
4302 OM 4302 OM OM1 4302 -0.550000 15.99940
4303 OM 4303 OM OM1 4303 -0.550000 15.99940
4304 OM 4304 OM OM1 4304 -0.550000 15.99940
4305 OM 4305 OM OM1 4305 -0.550000 15.99940
4306 OM 4306 OM OM1 4306 -0.550000 15.99940
4307 OM 4307 OM OM1 4307 -0.550000 15.99940
4308 OM 4308 OM OM1 4308 -0.550000 15.99940
4309 OM 4309 OM OM1 4309 -0.550000 15.99940
4310 OM 4310 OM OM1 4310 -0.550000 15.99940
4311 OM 4311 OM OM1 4311 -0.550000 15.99940
4312 OM 4312 OM OM1 4312 -0.550000 15.99940
4313 OM 4313 OM OM1 4313 -0.550000 15.99940
4314 OM 4314 OM OM1 4314 -0.550000 15.99940
4315 OM 4315 OM OM1 4315 -0.550000 15.99940
4316 OM 4316 OM OM1 4316 -0.550000 15.99940
4317 OM 4317 OM OM1 4317 -0.550000 15.99940
4318 OM 4318 OM OM1 4318 -0.550000 15.99940
4319 OM 4319 OM OM1 4319 -0.550000 15.99940
4320 OM 4320 OM OM1 4320 -0.550000 15.99940
4321 OM 4321 OM OM1 4321 -0.550000 15.99940
4322 OM 4322 OM OM1 4322 -0.550000 15.99940
4323 OM 4323 OM OM1 4323 -0.550000 15.99940
4324 OM 4324 OM OM1 4324 -0.550000 15.99940
4325 OM 4325 OM OM1 4325 -0.550000 15.99940
4326 OM 4326 OM OM1 4326 -0.550000 15.99940
4327 OM 4327 OM OM1 4327 -0.550000 15.99940
4328 OM 4328 OM OM1 4328 -0.550000 15.99940
4329 OM 4329 OM OM1 4329 -0.550000 15.99940
4330 OM 4330 OM OM1 4330 -0.550000 15.99940
4331 OM 4331 OM OM1 4331 -0.550000 15.99940
4332 OM 4332 OM OM1 4332 -0.550000 15.99940
4333 OM 4333 OM OM1 4333 -0.550000 15.99940
4334 OM 4334 OM OM1 4334 -0.550000 15.99940
4335 OM 4335 OM OM1 4335 -0.550000 15.99940
4336 OM 4336 OM OM1 4336 -0.550000 15.99940
4337 OM 4337 OM OM1 4337 -0.550000 15.99940
4338 OM 4338 OM OM1 4338 -0.550000 15.99940
4339 OM 4339 OM OM1 4339 -0.550000 15.99940
4340 OM 4340 OM OM1 4340 -0.550000 15.99940
4341 OM 4341 OM OM1 4341 -0.550000 15.99940
4342 OM 4342 OM OM1 4342 -0.550000 15.99940
4343 OM 4343 OM OM1 4343 -0.550000 15.99940
4344 OM 4344 OM OM1 4344 -0.550000 15.99940
4345 OM 4345 OM OM1 4345 -0.550000 15.99940
4346 OM 4346 OM OM1 4346 -0.550000 15.99940
4347 OM 4347 OM OM1 4347 -0.550000 15.99940
4348 OM 4348 OM OM1 4348 -0.550000 15.99940
4349 OM 4349 OM OM1 4349 -0.550000 15.99940
4350 OM 4350 OM OM1 4350 -0.550000 15.99940
4351 OM 4351 OM OM1 4351 -0.550000 15.99940
4352 OM 4352 OM OM1 4352 -0.550000 15.99940
4353 OM 4353 OM OM1 4353 -0.550000 15.99940
4354 OM 4354 OM OM1 4354 -0.550000 15.99940
4355 OM 4355 OM OM1 4355 -0.550000 15.99940
4356 OM 4356 OM OM1 4356 -0.550000 15.99940
4357 OM 4357 OM OM1 4357 -0.550000 15.99940
4358 OM 4358 OM OM1 4358 -0.550000 15.99940
4359 OM 4359 OM OM1 4359 -0.550000 15.99940
4360 OM 4360 OM OM1 4360 -0.550000 15.99940
4361 OM 4361 OM OM1 4361 -0.550000 15.99940
4362 OM 4362 OM OM1 4362 -0.550000 15.99940
4363 OM 4363 OM OM1 4363 -0.550000 15.99940
4364 OM 4364 OM OM1 4364 -0.550000 15.99940
4365 OM 4365 OM OM1 4365 -0.550000 15.99940
4366 OM 4366 OM OM1 4366 -0.550000 15.99940
4367 OM 4367 OM OM1 4367 -0.550000 15.99940
4368 OM 4368 OM OM1 4368 -0.550000 15.99940
4369 OM 4369 OM OM1 4369 -0.550000 15.99940
4370 OM 4370 OM OM1 4370 -0.550000 15.99940
4371 OM 4371 OM OM1 4371 -0.550000 15.99940
4372 OM 4372 OM OM1 4372 -0.550000 15.99940
4373 OM 4373 OM OM1 4373 -0.550000 15.99940
4374 OM 4374 OM OM1 4374 -0.550000 15.99940
4375 OM 4375 OM OM1 4375 -0.550000 15.99940
4376 OM 4376 OM OM1 4376 -0.550000 15.99940
4377 OM 4377 OM OM1 4377 -0.550000 15.99940
4378 OM 4378 OM OM1 4378 -0.550000 15.99940
4379 OM 4379 OM OM1 4379 -0.550000 15.99940
4380 OM 4380 OM OM1 4380 -0.550000 15.99940
4381 OM 4381 OM OM1 4381 -0.550000 15.99940
4382 OM 4382 OM OM1 4382 -0.550000 15.99940
4383 OM 4383 OM OM1 4383 -0.550000 15.99940
4384 OM 4384 OM OM1 4384 -0.550000 15.99940
4385 OM 4385 OM OM1 4385 -0.550000 15.99940
4386 OM 4386 OM OM1 4386 -0.550000 15.99940
4387 OM 4387 OM OM1 4387 -0.550000 15.99940
4388 OM 4388 OM OM1 4388 -0.550000 15.99940
4389 OM 4389 OM OM1 4389 -0.550000 15.99940
4390 OM 4390 OM OM1 4390 -0.550000 15.99940
4391 OM 4391 OM OM1 4391 -0.550000 15.99940
4392 OM 4392 OM OM1 4392 -0.550000 15.99940
4393 OM 4393 OM OM1 4393 -0.550000 15.99940
4394 OM 4394 OM OM1 4394 -0.550000 15.99940
4395 OM 4395 OM OM1 4395 -0.550000 15.99940
4396 OM 4396 OM OM1 4396 -0.550000 15.99940
4397 OM 4397 OM OM1 4397 -0.550000 15.99940
4398 OM 4398 OM OM1 4398 -0.550000 15.99940
4399 OM 4399 OM OM1 4399 -0.550000 15.99940
4400 OM 4400 OM OM1 4400 -0.550000 15.99940
4401 OM 4401 OM OM1 4401 -0.550000 15.99940
4402 OM 4402 OM OM1 4402 -0.550000 15.99940
4403 OM 4403 OM OM1 4403 -0.550000 15.99940
4404 OM 4404 OM OM1 4404 -0.550000 15.99940
4405 OM 4405 OM OM1 4405 -0.550000 15.99940
4406 OM 4406 OM OM1 4406 -0.550000 15.99940
4407 OM 4407 OM OM1 4407 -0.550000 15.99940
4408 OM 4408 OM OM1 4408 -0.550000 15.99940
4409 OM 4409 OM OM1 4409 -0.550000 15.99940
4410 OM 4410 OM OM1 4410 -0.550000 15.99940
4411 OM 4411 OM OM1 4411 -0.550000 15.99940
4412 OM 4412 OM OM1 4412 -0.550000 15.99940
4413 OM 4413 OM OM1 4413 -0.550000 15.99940
4414 OM 4414 OM OM1 4414 -0.550000 15.99940
4415 OM 4415 OM OM1 4415 -0.550000 15.99940
4416 OM 4416 OM OM1 4416 -0.550000 15.99940
4417 OM 4417 OM OM1 4417 -0.550000 15.99940
4418 OM 4418 OM OM1 4418 -0.550000 15.99940
4419 OM 4419 OM OM1 4419 -0.550000 15.99940
4420 OM 4420 OM OM1 4420 -0.550000 15.99940
4421 OM 4421 OM OM1 4421 -0.550000 15.99940
4422 OM 4422 OM OM1 4422 -0.550000 15.99940
4423 OM 4423 OM OM1 4423 -0.550000 15.99940
4424 OM 4424 OM OM1 4424 -0.550000 15.99940
4425 OM 4425 OM OM1 4425 -0.550000 15.99940
4426 OM 4426 OM OM1 4426 -0.550000 15.99940
4427 OM 4427 OM OM1 4427 -0.550000 15.99940
4428 OM 4428 OM OM1 4428 -0.550000 15.99940
4429 OM 4429 OM OM1 4429 -0.550000 15.99940
4430 OM 4430 OM OM1 4430 -0.550000 15.99940
4431 OM 4431 OM OM1 4431 -0.550000 15.99940
4432 OM 4432 OM OM1 4432 -0.550000 15.99940
4433 OM 4433 OM OM1 4433 -0.550000 15.99940
4434 OM 4434 OM OM1 4434 -0.550000 15.99940
4435 OM 4435 OM OM1 4435 -0.550000 15.99940
4436 OM 4436 OM OM1 4436 -0.550000 15.99940
4437 OM 4437 OM OM1 4437 -0.550000 15.99940
4438 OM 4438 OM OM1 4438 -0.550000 15.99940
4439 OM 4439 OM OM1 4439 -0.550000 15.99940
4440 OM 4440 OM OM1 4440 -0.550000 15.99940
4441 OM 4441 OM OM1 4441 -0.550000 15.99940
4442 OM 4442 OM OM1 4442 -0.550000 15.99940
4443 OM 4443 OM OM1 4443 -0.550000 15.99940
4444 OM 4444 OM OM1 4444 -0.550000 15.99940
4445 OM 4445 OM OM1 4445 -0.550000 15.99940
4446 OM 4446 OM OM1 4446 -0.550000 15.99940
4447 OM 4447 OM OM1 4447 -0.550000 15.99940
4448 OM 4448 OM OM1 4448 -0.550000 15.99940
4449 OM 4449 OM OM1 4449 -0.550000 15.99940
4450 OM 4450 OM OM1 4450 -0.550000 15.99940
4451 OM 4451 OM OM1 4451 -0.550000 15.99940
4452 OM 4452 OM OM1 4452 -0.550000 15.99940
4453 OM 4453 OM OM1 4453 -0.550000 15.99940
4454 OM 4454 OM OM1 4454 -0.550000 15.99940
4455 OM 4455 OM OM1 4455 -0.550000 15.99940
4456 OM 4456 OM OM1 4456 -0.550000 15.99940
4457 OM 4457 OM OM1 4457 -0.550000 15.99940
4458 OM 4458 OM OM1 4458 -0.550000 15.99940
4459 OM 4459 OM OM1 4459 -0.550000 15.99940
4460 OM 4460 OM OM1 4460 -0.550000 15.99940
4461 OM 4461 OM OM1 4461 -0.550000 15.99940
4462 OM 4462 OM OM1 4462 -0.550000 15.99940
4463 OM 4463 OM OM1 4463 -0.550000 15.99940
4464 OM 4464 OM OM1 4464 -0.550000 15.99940
4465 OM 4465 OM OM1 4465 -0.550000 15.99940
4466 OM 4466 OM OM1 4466 -0.550000 15.99940
4467 OM 4467 OM OM1 4467 -0.550000 15.99940
4468 OM 4468 OM OM1 4468 -0.550000 15.99940
4469 OM 4469 OM OM1 4469 -0.550000 15.99940
4470 OM 4470 OM OM1 4470 -0.550000 15.99940
4471 OM 4471 OM OM1 4471 -0.550000 15.99940
4472 OM 4472 OM OM1 4472 -0.550000 15.99940
4473 OM 4473 OM OM1 4473 -0.550000 15.99940
4474 OM 4474 OM OM1 4474 -0.550000 15.99940
4475 OM 4475 OM OM1 4475 -0.550000 15.99940
4476 OM 4476 OM OM1 4476 -0.550000 15.99940
4477 OM 4477 OM OM1 4477 -0.550000 15.99940
4478 OM 4478 OM OM1 4478 -0.550000 15.99940
4479 OM 4479 OM OM1 4479 -0.550000 15.99940
4480 OM 4480 OM OM1 4480 -0.550000 15.99940
4481 OM 4481 OM OM1 4481 -0.550000 15.99940
4482 OM 4482 OM OM1 4482 -0.550000 15.99940
4483 OM 4483 OM OM1 4483 -0.550000 15.99940
4484 OM 4484 OM OM1 4484 -0.550000 15.99940
4485 OM 4485 OM OM1 4485 -0.550000 15.99940
4486 OM 4486 OM OM1 4486 -0.550000 15.99940
4487 OM 4487 OM OM1 4487 -0.550000 15.99940
4488 OM 4488 OM OM1 4488 -0.550000 15.99940
4489 OM 4489 OM OM1 4489 -0.550000 15.99940
4490 OM 4490 OM OM1 4490 -0.550000 15.99940
4491 OM 4491 OM OM1 4491 -0.550000 15.99940
4492 OM 4492 OM OM1 4492 -0.550000 15.99940
4493 OM 4493 OM OM1 4493 -0.550000 15.99940
4494 OM 4494 OM OM1 4494 -0.550000 15.99940
4495 OM 4495 OM OM1 4495 -0.550000 15.99940
4496 OM 4496 OM OM1 4496 -0.550000 15.99940
4497 OM 4497 OM OM1 4497 -0.550000 15.99940
4498 OM 4498 OM OM1 4498 -0.550000 15.99940
4499 OM 4499 OM OM1 4499 -0.550000 15.99940
4500 OM 4500 OM OM1 4500 -0.550000 15.99940
4501 OM 4501 OM OM1 4501 -0.550000 15.99940
4502 OM 4502 OM OM1 4502 -0.550000 15.99940
4503 OM 4503 OM OM1 4503 -0.550000 15.99940
4504 OM 4504 OM OM1 4504 -0.550000 15.99940
4505 OM 4505 OM OM1 4505 -0.550000 15.99940
4506 OM 4506 OM OM1 4506 -0.550000 15.99940
4507 OM 4507 OM OM1 4507 -0.550000 15.99940
4508 OM 4508 OM OM1 4508 -0.550000 15.99940
4509 OM 4509 OM OM1 4509 -0.550000 15.99940
4510 OM 4510 OM OM1 4510 -0.550000 15.99940
4511 OM 4511 OM OM1 4511 -0.550000 15.99940
4512 OM 4512 OM OM1 4512 -0.550000 15.99940
4513 OM 4513 OM OM1 4513 -0.550000 15.99940
4514 OM 4514 OM OM1 4514 -0.550000 15.99940
4515 OM 4515 OM OM1 4515 -0.550000 15.99940
4516 OM 4516 OM OM1 4516 -0.550000 15.99940
4517 OM 4517 OM OM1 4517 -0.550000 15.99940
4518 OM 4518 OM OM1 4518 -0.550000 15.99940
4519 OM 4519 OM OM1 4519 -0.550000 15.99940
4520 OM 4520 OM OM1 4520 -0.550000 15.99940
4521 OM 4521 OM OM1 4521 -0.550000 15.99940
4522 OM 4522 OM OM1 4522 -0.550000 15.99940
4523 OM 4523 OM OM1 4523 -0.550000 15.99940
4524 OM 4524 OM OM1 4524 -0.550000 15.99940
4525 OM 4525 OM OM1 4525 -0.550000 15.99940
4526 OM 4526 OM OM1 4526 -0.550000 15.99940
4527 OM 4527 OM OM1 4527 -0.550000 15.99940
4528 OM 4528 OM OM1 4528 -0.550000 15.99940
4529 OM 4529 OM OM1 4529 -0.550000 15.99940
4530 OM 4530 OM OM1 4530 -0.550000 15.99940
4531 OM 4531 OM OM1 4531 -0.550000 15.99940
4532 OM 4532 OM OM1 4532 -0.550000 15.99940
4533 OM 4533 OM OM1 4533 -0.550000 15.99940
4534 OM 4534 OM OM1 4534 -0.550000 15.99940
4535 OM 4535 OM OM1 4535 -0.550000 15.99940
4536 OM 4536 OM OM1 4536 -0.550000 15.99940
4537 OM 4537 OM OM1 4537 -0.550000 15.99940
4538 OM 4538 OM OM1 4538 -0.550000 15.99940
4539 OM 4539 OM OM1 4539 -0.550000 15.99940
4540 OM 4540 OM OM1 4540 -0.550000 15.99940
4541 OM 4541 OM OM1 4541 -0.550000 15.99940
4542 OM 4542 OM OM1 4542 -0.550000 15.99940
4543 OM 4543 OM OM1 4543 -0.550000 15.99940
4544 OM 4544 OM OM1 4544 -0.550000 15.99940
4545 OM 4545 OM OM1 4545 -0.550000 15.99940
4546 OM 4546 OM OM1 4546 -0.550000 15.99940
4547 OM 4547 OM OM1 4547 -0.550000 15.99940
4548 OM 4548 OM OM1 4548 -0.550000 15.99940
4549 OM 4549 OM OM1 4549 -0.550000 15.99940
4550 OM 4550 OM OM1 4550 -0.550000 15.99940
4551 OM 4551 OM OM1 4551 -0.550000 15.99940
4552 OM 4552 OM OM1 4552 -0.550000 15.99940
4553 OM 4553 OM OM1 4553 -0.550000 15.99940
4554 OM 4554 OM OM1 4554 -0.550000 15.99940
4555 OM 4555 OM OM1 4555 -0.550000 15.99940
4556 OM 4556 OM OM1 4556 -0.550000 15.99940
4557 OM 4557 OM OM1 4557 -0.550000 15.99940
4558 OM 4558 OM OM1 4558 -0.550000 15.99940
4559 OM 4559 OM OM1 4559 -0.550000 15.99940
4560 OM 4560 OM OM1 4560 -0.550000 15.99940
4561 OM 4561 OM OM1 4561 -0.550000 15.99940
4562 OM 4562 OM OM1 4562 -0.550000 15.99940
4563 OM 4563 OM OM1 4563 -0.550000 15.99940
4564 OM 4564 OM OM1 4564 -0.550000 15.99940
4565 OM 4565 OM OM1 4565 -0.550000 15.99940
4566 OM 4566 OM OM1 4566 -0.550000 15.99940
4567 OM 4567 OM OM1 4567 -0.550000 15.99940
4568 OM 4568 OM OM1 4568 -0.550000 15.99940
4569 OM 4569 OM OM1 4569 -0.550000 15.99940
4570 OM 4570 OM OM1 4570 -0.550000 15.99940
4571 OM 4571 OM OM1 4571 -0.550000 15.99940
4572 OM 4572 OM OM1 4572 -0.550000 15.99940
4573 OM 4573 OM OM1 4573 -0.550000 15.99940
4574 OM 4574 OM OM1 4574 -0.550000 15.99940
4575 OM 4575 OM OM1 4575 -0.550000 15.99940
4576 OM 4576 OM OM1 4576 -0.550000 15.99940
4577 OM 4577 OM OM1 4577 -0.550000 15.99940
4578 OM 4578 OM OM1 4578 -0.550000 15.99940
4579 OM 4579 OM OM1 4579 -0.550000 15.99940
4580 OM 4580 OM OM1 4580 -0.550000 15.99940
4581 OM 4581 OM OM1 4581 -0.550000 15.99940
4582 OM 4582 OM OM1 4582 -0.550000 15.99940
4583 OM 4583 OM OM1 4583 -0.550000 15.99940
4584 OM 4584 OM OM1 4584 -0.550000 15.99940
4585 OM 4585 OM OM1 4585 -0.550000 15.99940
4586 OM 4586 OM OM1 4586 -0.550000 15.99940
4587 OM 4587 OM OM1 4587 -0.550000 15.99940
4588 OM 4588 OM OM1 4588 -0.550000 15.99940
4589 OM 4589 OM OM1 4589 -0.550000 15.99940
4590 OM 4590 OM OM1 4590 -0.550000 15.99940
4591 OM 4591 OM OM1 4591 -0.550000 15.99940
4592 OM 4592 OM OM1 4592 -0.550000 15.99940
4593 OM 4593 OM OM1 4593 -0.550000 15.99940
4594 OM 4594 OM OM1 4594 -0.550000 15.99940
4595 OM 4595 OM OM1 4595 -0.550000 15.99940
4596 OM 4596 OM OM1 4596 -0.550000 15.99940
4597 OM 4597 OM OM1 4597 -0.550000 15.99940
4598 OM 4598 OM OM1 4598 -0.550000 15.99940
4599 OM 4599 OM OM1 4599 -0.550000 15.99940
4600 OM 4600 OM OM1 4600 -0.550000 15.99940
4601 OM 4601 OM OM1 4601 -0.550000 15.99940
4602 OM 4602 OM OM1 4602 -0.550000 15.99940
4603 OM 4603 OM OM1 4603 -0.550000 15.99940
4604 OM 4604 OM OM1 4604 -0.550000 15.99940
4605 OM 4605 OM OM1 4605 -0.550000 15.99940
4606 OM 4606 OM OM1 4606 -0.550000 15.99940
4607 OM 4607 OM OM1 4607 -0.550000 15.99940
4608 OM 4608 OM OM1 4608 -0.550000 15.99940
4609 OM 4609 OM OM1 4609 -0.550000 15.99940
4610 OM 4610 OM OM1 4610 -0.550000 15.99940
4611 OM 4611 OM OM1 4611 -0.550000 15.99940
4612 OM 4612 OM OM1 4612 -0.550000 15.99940
4613 OM 4613 OM OM1 4613 -0.550000 15.99940
4614 OM 4614 OM OM1 4614 -0.550000 15.99940
4615 OM 4615 OM OM1 4615 -0.550000 15.99940
4616 OM 4616 OM OM1 4616 -0.550000 15.99940
4617 OM 4617 OM OM1 4617 -0.550000 15.99940
4618 OM 4618 OM OM1 4618 -0.550000 15.99940
4619 OM 4619 OM OM1 4619 -0.550000 15.99940
4620 OM 4620 OM OM1 4620 -0.550000 15.99940
4621 OM 4621 OM OM1 4621 -0.550000 15.99940
4622 OM 4622 OM OM1 4622 -0.550000 15.99940
4623 OM 4623 OM OM1 4623 -0.550000 15.99940
4624 OM 4624 OM OM1 4624 -0.550000 15.99940
4625 OM 4625 OM OM1 4625 -0.550000 15.99940
4626 OM 4626 OM OM1 4626 -0.550000 15.99940
4627 OM 4627 OM OM1 4627 -0.550000 15.99940
4628 OM 4628 OM OM1 4628 -0.550000 15.99940
4629 OM 4629 OM OM1 4629 -0.550000 15.99940
4630 OM 4630 OM OM1 4630 -0.550000 15.99940
4631 OM 4631 OM OM1 4631 -0.550000 15.99940
4632 OM 4632 OM OM1 4632 -0.550000 15.99940
4633 OM 4633 OM OM1 4633 -0.550000 15.99940
4634 OM 4634 OM OM1 4634 -0.550000 15.99940
4635 OM 4635 OM OM1 4635 -0.550000 15.99940
4636 OM 4636 OM OM1 4636 -0.550000 15.99940
4637 OM 4637 OM OM1 4637 -0.550000 15.99940
4638 OM 4638 OM OM1 4638 -0.550000 15.99940
4639 OM 4639 OM OM1 4639 -0.550000 15.99940
4640 OM 4640 OM OM1 4640 -0.550000 15.99940
4641 OM 4641 OM OM1 4641 -0.550000 15.99940
4642 OM 4642 OM OM1 4642 -0.550000 15.99940
4643 OM 4643 OM OM1 4643 -0.550000 15.99940
4644 OM 4644 OM OM1 4644 -0.550000 15.99940
4645 OM 4645 OM OM1 4645 -0.550000 15.99940
4646 OM 4646 OM OM1 4646 -0.550000 15.99940
4647 OM 4647 OM OM1 4647 -0.550000 15.99940
4648 OM 4648 OM OM1 4648 -0.550000 15.99940
4649 OM 4649 OM OM1 4649 -0.550000 15.99940
4650 OM 4650 OM OM1 4650 -0.550000 15.99940
4651 OM 4651 OM OM1 4651 -0.550000 15.99940
4652 OM 4652 OM OM1 4652 -0.550000 15.99940
4653 OM 4653 OM OM1 4653 -0.550000 15.99940
4654 OM 4654 OM OM1 4654 -0.550000 15.99940
4655 OM 4655 OM OM1 4655 -0.550000 15.99940
4656 OM 4656 OM OM1 4656 -0.550000 15.99940
4657 OM 4657 OM OM1 4657 -0.550000 15.99940
4658 OM 4658 OM OM1 4658 -0.550000 15.99940
4659 OM 4659 OM OM1 4659 -0.550000 15.99940
4660 OM 4660 OM OM1 4660 -0.550000 15.99940
4661 OM 4661 OM OM1 4661 -0.550000 15.99940
4662 OM 4662 OM OM1 4662 -0.550000 15.99940
4663 OM 4663 OM OM1 4663 -0.550000 15.99940
4664 OM 4664 OM OM1 4664 -0.550000 15.99940
4665 OM 4665 OM OM1 4665 -0.550000 15.99940
4666 OM 4666 OM OM1 4666 -0.550000 15.99940
4667 OM 4667 OM OM1 4667 -0.550000 15.99940
4668 OM 4668 OM OM1 4668 -0.550000 15.99940
4669 OM 4669 OM OM1 4669 -0.550000 15.99940
4670 OM 4670 OM OM1 4670 -0.550000 15.99940
4671 OM 4671 OM OM1 4671 -0.550000 15.99940
4672 OM 4672 OM OM1 4672 -0.550000 15.99940
4673 OM 4673 OM OM1 4673 -0.550000 15.99940
4674 OM 4674 OM OM1 4674 -0.550000 15.99940
4675 OM 4675 OM OM1 4675 -0.550000 15.99940
4676 OM 4676 OM OM1 4676 -0.550000 15.99940
4677 OM 4677 OM OM1 4677 -0.550000 15.99940
4678 OM 4678 OM OM1 4678 -0.550000 15.99940
4679 OM 4679 OM OM1 4679 -0.550000 15.99940
4680 OM 4680 OM OM1 4680 -0.550000 15.99940
4681 OM 4681 OM OM1 4681 -0.550000 15.99940
4682 OM 4682 OM OM1 4682 -0.550000 15.99940
4683 OM 4683 OM OM1 4683 -0.550000 15.99940
4684 OM 4684 OM OM1 4684 -0.550000 15.99940
4685 OM 4685 OM OM1 4685 -0.550000 15.99940
4686 OM 4686 OM OM1 4686 -0.550000 15.99940
4687 OM 4687 OM OM1 4687 -0.550000 15.99940
4688 OM 4688 OM OM1 4688 -0.550000 15.99940
4689 OM 4689 OM OM1 4689 -0.550000 15.99940
4690 OM 4690 OM OM1 4690 -0.550000 15.99940
4691 OM 4691 OM OM1 4691 -0.550000 15.99940
4692 OM 4692 OM OM1 4692 -0.550000 15.99940
4693 OM 4693 OM OM1 4693 -0.550000 15.99940
4694 OM 4694 OM OM1 4694 -0.550000 15.99940
4695 OM 4695 OM OM1 4695 -0.550000 15.99940
4696 OM 4696 OM OM1 4696 -0.550000 15.99940
4697 OM 4697 OM OM1 4697 -0.550000 15.99940
4698 OM 4698 OM OM1 4698 -0.550000 15.99940
4699 OM 4699 OM OM1 4699 -0.550000 15.99940
4700 OM 4700 OM OM1 4700 -0.550000 15.99940
4701 OM 4701 OM OM1 4701 -0.550000 15.99940
4702 OM 4702 OM OM1 4702 -0.550000 15.99940
4703 OM 4703 OM OM1 4703 -0.550000 15.99940
4704 OM 4704 OM OM1 4704 -0.550000 15.99940
4705 OM 4705 OM OM1 4705 -0.550000 15.99940
4706 OM 4706 OM OM1 4706 -0.550000 15.99940
4707 OM 4707 OM OM1 4707 -0.550000 15.99940
4708 OM 4708 OM OM1 4708 -0.550000 15.99940
4709 OM 4709 OM OM1 4709 -0.550000 15.99940
4710 OM 4710 OM OM1 4710 -0.550000 15.99940
4711 OM 4711 OM OM1 4711 -0.550000 15.99940
4712 OM 4712 OM OM1 4712 -0.550000 15.99940
4713 OM 4713 OM OM1 4713 -0.550000 15.99940
4714 OM 4714 OM OM1 4714 -0.550000 15.99940
4715 OM 4715 OM OM1 4715 -0.550000 15.99940
4716 OM 4716 OM OM1 4716 -0.550000 15.99940
4717 OM 4717 OM OM1 4717 -0.550000 15.99940
4718 OM 4718 OM OM1 4718 -0.550000 15.99940
4719 OM 4719 OM OM1 4719 -0.550000 15.99940
4720 OM 4720 OM OM1 4720 -0.550000 15.99940
4721 OM 4721 OM OM1 4721 -0.550000 15.99940
4722 OM 4722 OM OM1 4722 -0.550000 15.99940
4723 OM 4723 OM OM1 4723 -0.550000 15.99940
4724 OM 4724 OM OM1 4724 -0.550000 15.99940
4725 OM 4725 OM OM1 4725 -0.550000 15.99940
4726 OM 4726 OM OM1 4726 -0.550000 15.99940
4727 OM 4727 OM OM1 4727 -0.550000 15.99940
4728 OM 4728 OM OM1 4728 -0.550000 15.99940
4729 OM 4729 OM OM1 4729 -0.550000 15.99940
4730 OM 4730 OM OM1 4730 -0.550000 15.99940
4731 OM 4731 OM OM1 4731 -0.550000 15.99940
4732 OM 4732 OM OM1 4732 -0.550000 15.99940
4733 OM 4733 OM OM1 4733 -0.550000 15.99940
4734 OM 4734 OM OM1 4734 -0.550000 15.99940
4735 OM 4735 OM OM1 4735 -0.550000 15.99940
4736 OM 4736 OM OM1 4736 -0.550000 15.99940
4737 OM 4737 OM OM1 4737 -0.550000 15.99940
4738 OM 4738 OM OM1 4738 -0.550000 15.99940
4739 OM 4739 OM OM1 4739 -0.550000 15.99940
4740 OM 4740 OM OM1 4740 -0.550000 15.99940
4741 OM 4741 OM OM1 4741 -0.550000 15.99940
4742 OM 4742 OM OM1 4742 -0.550000 15.99940
4743 OM 4743 OM OM1 4743 -0.550000 15.99940
4744 OM 4744 OM OM1 4744 -0.550000 15.99940
4745 OM 4745 OM OM1 4745 -0.550000 15.99940
4746 OM 4746 OM OM1 4746 -0.550000 15.99940
4747 OM 4747 OM OM1 4747 -0.550000 15.99940
4748 OM 4748 OM OM1 4748 -0.550000 15.99940
4749 OM 4749 OM OM1 4749 -0.550000 15.99940
4750 OM 4750 OM OM1 4750 -0.550000 15.99940
4751 OM 4751 OM OM1 4751 -0.550000 15.99940
4752 OM 4752 OM OM1 4752 -0.550000 15.99940
4753 OM 4753 OM OM1 4753 -0.550000 15.99940
4754 OM 4754 OM OM1 4754 -0.550000 15.99940
4755 OM 4755 OM OM1 4755 -0.550000 15.99940
4756 OM 4756 OM OM1 4756 -0.550000 15.99940
4757 OM 4757 OM OM1 4757 -0.550000 15.99940
4758 OM 4758 OM OM1 4758 -0.550000 15.99940
4759 OM 4759 OM OM1 4759 -0.550000 15.99940
4760 OM 4760 OM OM1 4760 -0.550000 15.99940
4761 OM 4761 OM OM1 4761 -0.550000 15.99940
4762 OM 4762 OM OM1 4762 -0.550000 15.99940
4763 OM 4763 OM OM1 4763 -0.550000 15.99940
4764 OM 4764 OM OM1 4764 -0.550000 15.99940
4765 OM 4765 OM OM1 4765 -0.550000 15.99940
4766 OM 4766 OM OM1 4766 -0.550000 15.99940
4767 OM 4767 OM OM1 4767 -0.550000 15.99940
4768 OM 4768 OM OM1 4768 -0.550000 15.99940
4769 OM 4769 OM OM1 4769 -0.550000 15.99940
4770 OM 4770 OM OM1 4770 -0.550000 15.99940
4771 OM 4771 OM OM1 4771 -0.550000 15.99940
4772 OM 4772 OM OM1 4772 -0.550000 15.99940
4773 OM 4773 OM OM1 4773 -0.550000 15.99940
4774 OM 4774 OM OM1 4774 -0.550000 15.99940
4775 OM 4775 OM OM1 4775 -0.550000 15.99940
4776 OM 4776 OM OM1 4776 -0.550000 15.99940
4777 OM 4777 OM OM1 4777 -0.550000 15.99940
4778 OM 4778 OM OM1 4778 -0.550000 15.99940
4779 OM 4779 OM OM1 4779 -0.550000 15.99940
4780 OM 4780 OM OM1 4780 -0.550000 15.99940
4781 OM 4781 OM OM1 4781 -0.550000 15.99940
4782 OM 4782 OM OM1 4782 -0.550000 15.99940
4783 OM 4783 OM OM1 4783 -0.550000 15.99940
4784 OM 4784 OM OM1 4784 -0.550000 15.99940
4785 OM 4785 OM OM1 4785 -0.550000 15.99940
4786 OM 4786 OM OM1 4786 -0.550000 15.99940
4787 OM 4787 OM OM1 4787 -0.550000 15.99940
4788 OM 4788 OM OM1 4788 -0.550000 15.99940
4789 OM 4789 OM OM1 4789 -0.550000 15.99940
4790 OM 4790 OM OM1 4790 -0.550000 15.99940
4791 OM 4791 OM OM1 4791 -0.550000 15.99940
4792 OM 4792 OM OM1 4792 -0.550000 15.99940
4793 OM 4793 OM OM1 4793 -0.550000 15.99940
4794 OM 4794 OM OM1 4794 -0.550000 15.99940
4795 OM 4795 OM OM1 4795 -0.550000 15.99940
4796 OM 4796 OM OM1 4796 -0.550000 15.99940
4797 OM 4797 OM OM1 4797 -0.550000 15.99940
4798 OM 4798 OM OM1 4798 -0.550000 15.99940
4799 OM 4799 OM OM1 4799 -0.550000 15.99940
4800 OM 4800 OM OM1 4800 -0.550000 15.99940
4801 OM 4801 OM OM1 4801 -0.550000 15.99940
4802 OM 4802 OM OM1 4802 -0.550000 15.99940
4803 OM 4803 OM OM1 4803 -0.550000 15.99940
4804 OM 4804 OM OM1 4804 -0.550000 15.99940
4805 OM 4805 OM OM1 4805 -0.550000 15.99940
4806 OM 4806 OM OM1 4806 -0.550000 15.99940
4807 OM 4807 OM OM1 4807 -0.550000 15.99940
4808 OM 4808 OM OM1 4808 -0.550000 15.99940
4809 OM 4809 OM OM1 4809 -0.550000 15.99940
4810 OM 4810 OM OM1 4810 -0.550000 15.99940
4811 OM 4811 OM OM1 4811 -0.550000 15.99940
4812 OM 4812 OM OM1 4812 -0.550000 15.99940
4813 OM 4813 OM OM1 4813 -0.550000 15.99940
4814 OM 4814 OM OM1 4814 -0.550000 15.99940
4815 OM 4815 OM OM1 4815 -0.550000 15.99940
4816 OM 4816 OM OM1 4816 -0.550000 15.99940
4817 OM 4817 OM OM1 4817 -0.550000 15.99940
4818 OM 4818 OM OM1 4818 -0.550000 15.99940
4819 OM 4819 OM OM1 4819 -0.550000 15.99940
4820 OM 4820 OM OM1 4820 -0.550000 15.99940
4821 OM 4821 OM OM1 4821 -0.550000 15.99940
4822 OM 4822 OM OM1 4822 -0.550000 15.99940
4823 OM 4823 OM OM1 4823 -0.550000 15.99940
4824 OM 4824 OM OM1 4824 -0.550000 15.99940
4825 OM 4825 OM OM1 4825 -0.550000 15.99940
4826 OM 4826 OM OM1 4826 -0.550000 15.99940
4827 OM 4827 OM OM1 4827 -0.550000 15.99940
4828 OM 4828 OM OM1 4828 -0.550000 15.99940
4829 OM 4829 OM OM1 4829 -0.550000 15.99940
4830 OM 4830 OM OM1 4830 -0.550000 15.99940
4831 OM 4831 OM OM1 4831 -0.550000 15.99940
4832 OM 4832 OM OM1 4832 -0.550000 15.99940
4833 OM 4833 OM OM1 4833 -0.550000 15.99940
4834 OM 4834 OM OM1 4834 -0.550000 15.99940
4835 OM 4835 OM OM1 4835 -0.550000 15.99940
4836 OM 4836 OM OM1 4836 -0.550000 15.99940
4837 OM 4837 OM OM1 4837 -0.550000 15.99940
4838 OM 4838 OM OM1 4838 -0.550000 15.99940
4839 OM 4839 OM OM1 4839 -0.550000 15.99940
4840 OM 4840 OM OM1 4840 -0.550000 15.99940
4841 OM 4841 OM OM1 4841 -0.550000 15.99940
4842 OM 4842 OM OM1 4842 -0.550000 15.99940
4843 OM 4843 OM OM1 4843 -0.550000 15.99940
4844 OM 4844 OM OM1 4844 -0.550000 15.99940
4845 OM 4845 OM OM1 4845 -0.550000 15.99940
4846 OM 4846 OM OM1 4846 -0.550000 15.99940
4847 OM 4847 OM OM1 4847 -0.550000 15.99940
4848 OM 4848 OM OM1 4848 -0.550000 15.99940
4849 OM 4849 OM OM1 4849 -0.550000 15.99940
4850 OM 4850 OM OM1 4850 -0.550000 15.99940
4851 OM 4851 OM OM1 4851 -0.550000 15.99940
4852 OM 4852 OM OM1 4852 -0.550000 15.99940
4853 OM 4853 OM OM1 4853 -0.550000 15.99940
4854 OM 4854 OM OM1 4854 -0.550000 15.99940
4855 OM 4855 OM OM1 4855 -0.550000 15.99940
4856 OM 4856 OM OM1 4856 -0.550000 15.99940
4857 OM 4857 OM OM1 4857 -0.550000 15.99940
4858 OM 4858 OM OM1 4858 -0.550000 15.99940
4859 OM 4859 OM OM1 4859 -0.550000 15.99940
4860 OM 4860 OM OM1 4860 -0.550000 15.99940
4861 OM 4861 OM OM1 4861 -0.550000 15.99940
4862 OM 4862 OM OM1 4862 -0.550000 15.99940
4863 OM 4863 OM OM1 4863 -0.550000 15.99940
4864 OM 4864 OM OM1 4864 -0.550000 15.99940
4865 OM 4865 OM OM1 4865 -0.550000 15.99940
4866 OM 4866 OM OM1 4866 -0.550000 15.99940
4867 OM 4867 OM OM1 4867 -0.550000 15.99940
4868 OM 4868 OM OM1 4868 -0.550000 15.99940
4869 OM 4869 OM OM1 4869 -0.550000 15.99940
4870 OM 4870 OM OM1 4870 -0.550000 15.99940
4871 OM 4871 OM OM1 4871 -0.550000 15.99940
4872 OM 4872 OM OM1 4872 -0.550000 15.99940
4873 OM 4873 OM OM1 4873 -0.550000 15.99940
4874 OM 4874 OM OM1 4874 -0.550000 15.99940
4875 OM 4875 OM OM1 4875 -0.550000 15.99940
4876 OM 4876 OM OM1 4876 -0.550000 15.99940
4877 OM 4877 OM OM1 4877 -0.550000 15.99940
4878 OM 4878 OM OM1 4878 -0.550000 15.99940
4879 OM 4879 OM OM1 4879 -0.550000 15.99940
4880 OM 4880 OM OM1 4880 -0.550000 15.99940
4881 OM 4881 OM OM1 4881 -0.550000 15.99940
4882 OM 4882 OM OM1 4882 -0.550000 15.99940
4883 OM 4883 OM OM1 4883 -0.550000 15.99940
4884 OM 4884 OM OM1 4884 -0.550000 15.99940
4885 OM 4885 OM OM1 4885 -0.550000 15.99940
4886 OM 4886 OM OM1 4886 -0.550000 15.99940
4887 OM 4887 OM OM1 4887 -0.550000 15.99940
4888 OM 4888 OM OM1 4888 -0.550000 15.99940
4889 OM 4889 OM OM1 4889 -0.550000 15.99940
4890 OM 4890 OM OM1 4890 -0.550000 15.99940
4891 OM 4891 OM OM1 4891 -0.550000 15.99940
4892 OM 4892 OM OM1 4892 -0.550000 15.99940
4893 OM 4893 OM OM1 4893 -0.550000 15.99940
4894 OM 4894 OM OM1 4894 -0.550000 15.99940
4895 OM 4895 OM OM1 4895 -0.550000 15.99940
4896 OM 4896 OM OM1 4896 -0.550000 15.99940
4897 OM 4897 OM OM1 4897 -0.550000 15.99940
4898 OM 4898 OM OM1 4898 -0.550000 15.99940
4899 OM 4899 OM OM1 4899 -0.550000 15.99940
4900 OM 4900 OM OM1 4900 -0.550000 15.99940
4901 OM 4901 OM OM1 4901 -0.550000 15.99940
4902 OM 4902 OM OM1 4902 -0.550000 15.99940
4903 OM 4903 OM OM1 4903 -0.550000 15.99940
4904 OM 4904 OM OM1 4904 -0.550000 15.99940
4905 OM 4905 OM OM1 4905 -0.550000 15.99940
4906 OM 4906 OM OM1 4906 -0.550000 15.99940
4907 OM 4907 OM OM1 4907 -0.550000 15.99940
4908 OM 4908 OM OM1 4908 -0.550000 15.99940
4909 OM 4909 OM OM1 4909 -0.550000 15.99940
4910 OM 4910 OM OM1 4910 -0.550000 15.99940
4911 OM 4911 OM OM1 4911 -0.550000 15.99940
4912 OM 4912 OM OM1 4912 -0.550000 15.99940
4913 OM 4913 OM OM1 4913 -0.550000 15.99940
4914 OM 4914 OM OM1 4914 -0.550000 15.99940
4915 OM 4915 OM OM1 4915 -0.550000 15.99940
4916 OM 4916 OM OM1 4916 -0.550000 15.99940
4917 OM 4917 OM OM1 4917 -0.550000 15.99940
4918 OM 4918 OM OM1 4918 -0.550000 15.99940
4919 OM 4919 OM OM1 4919 -0.550000 15.99940
4920 OM 4920 OM OM1 4920 -0.550000 15.99940
4921 OM 4921 OM OM1 4921 -0.550000 15.99940
4922 OM 4922 OM OM1 4922 -0.550000 15.99940
4923 OM 4923 OM OM1 4923 -0.550000 15.99940
4924 OM 4924 OM OM1 4924 -0.550000 15.99940
4925 OM 4925 OM OM1 4925 -0.550000 15.99940
4926 OM 4926 OM OM1 4926 -0.550000 15.99940
4927 OM 4927 OM OM1 4927 -0.550000 15.99940
4928 OM 4928 OM OM1 4928 -0.550000 15.99940
4929 OM 4929 OM OM1 4929 -0.550000 15.99940
4930 OM 4930 OM OM1 4930 -0.550000 15.99940
4931 OM 4931 OM OM1 4931 -0.550000 15.99940
4932 OM 4932 OM OM1 4932 -0.550000 15.99940
4933 OM 4933 OM OM1 4933 -0.550000 15.99940
4934 OM 4934 OM OM1 4934 -0.550000 15.99940
4935 OM 4935 OM OM1 4935 -0.550000 15.99940
4936 OM 4936 OM OM1 4936 -0.550000 15.99940
4937 OM 4937 OM OM1 4937 -0.550000 15.99940
4938 OM 4938 OM OM1 4938 -0.550000 15.99940
4939 OM 4939 OM OM1 4939 -0.550000 15.99940
4940 OM 4940 OM OM1 4940 -0.550000 15.99940
4941 OM 4941 OM OM1 4941 -0.550000 15.99940
4942 OM 4942 OM OM1 4942 -0.550000 15.99940
4943 OM 4943 OM OM1 4943 -0.550000 15.99940
4944 OM 4944 OM OM1 4944 -0.550000 15.99940
4945 OM 4945 OM OM1 4945 -0.550000 15.99940
4946 OM 4946 OM OM1 4946 -0.550000 15.99940
4947 OM 4947 OM OM1 4947 -0.550000 15.99940
4948 OM 4948 OM OM1 4948 -0.550000 15.99940
4949 OM 4949 OM OM1 4949 -0.550000 15.99940
4950 OM 4950 OM OM1 4950 -0.550000 15.99940
4951 OM 4951 OM OM1 4951 -0.550000 15.99940
4952 OM 4952 OM OM1 4952 -0.550000 15.99940
4953 OM 4953 OM OM1 4953 -0.550000 15.99940
4954 OM 4954 OM OM1 4954 -0.550000 15.99940
4955 OM 4955 OM OM1 4955 -0.550000 15.99940
4956 OM 4956 OM OM1 4956 -0.550000 15.99940
4957 OM 4957 OM OM1 4957 -0.550000 15.99940
4958 OM 4958 OM OM1 4958 -0.550000 15.99940
4959 OM 4959 OM OM1 4959 -0.550000 15.99940
4960 OM 4960 OM OM1 4960 -0.550000 15.99940
4961 OM 4961 OM OM1 4961 -0.550000 15.99940
4962 OM 4962 OM OM1 4962 -0.550000 15.99940
4963 OM 4963 OM OM1 4963 -0.550000 15.99940
4964 OM 4964 OM OM1 4964 -0.550000 15.99940
4965 OM 4965 OM OM1 4965 -0.550000 15.99940
4966 OM 4966 OM OM1 4966 -0.550000 15.99940
4967 OM 4967 OM OM1 4967 -0.550000 15.99940
4968 OM 4968 OM OM1 4968 -0.550000 15.99940
4969 OM 4969 OM OM1 4969 -0.550000 15.99940
4970 OM 4970 OM OM1 4970 -0.550000 15.99940
4971 OM 4971 OM OM1 4971 -0.550000 15.99940
4972 OM 4972 OM OM1 4972 -0.550000 15.99940
4973 OM 4973 OM OM1 4973 -0.550000 15.99940
4974 OM 4974 OM OM1 4974 -0.550000 15.99940
4975 OM 4975 OM OM1 4975 -0.550000 15.99940
4976 OM 4976 OM OM1 4976 -0.550000 15.99940
4977 OM 4977 OM OM1 4977 -0.550000 15.99940
4978 OM 4978 OM OM1 4978 -0.550000 15.99940
4979 OM 4979 OM OM1 4979 -0.550000 15.99940
4980 OM 4980 OM OM1 4980 -0.550000 15.99940
4981 OM 4981 OM OM1 4981 -0.550000 15.99940
4982 OM 4982 OM OM1 4982 -0.550000 15.99940
4983 OM 4983 OM OM1 4983 -0.550000 15.99940
4984 OM 4984 OM OM1 4984 -0.550000 15.99940
4985 OM 4985 OM OM1 4985 -0.550000 15.99940
4986 OM 4986 OM OM1 4986 -0.550000 15.99940
4987 OM 4987 OM OM1 4987 -0.550000 15.99940
4988 OM 4988 OM OM1 4988 -0.550000 15.99940
4989 OM 4989 OM OM1 4989 -0.550000 15.99940
4990 OM 4990 OM OM1 4990 -0.550000 15.99940
4991 OM 4991 OM OM1 4991 -0.550000 15.99940
4992 OM 4992 OM OM1 4992 -0.550000 15.99940
4993 OM 4993 OM OM1 4993 -0.550000 15.99940
4994 OM 4994 OM OM1 4994 -0.550000 15.99940
4995 OM 4995 OM OM1 4995 -0.550000 15.99940
4996 OM 4996 OM OM1 4996 -0.550000 15.99940
4997 OM 4997 OM OM1 4997 -0.550000 15.99940
4998 OM 4998 OM OM1 4998 -0.550000 15.99940
4999 OM 4999 OM OM1 4999 -0.550000 15.99940
5000 OM 5000 OM OM1 5000 -0.550000 15.99940
5001 OM 5001 OM OM1 5001 -0.550000 15.99940
5002 OM 5002 OM OM1 5002 -0.550000 15.99940
5003 OM 5003 OM OM1 5003 -0.550000 15.99940
5004 OM 5004 OM OM1 5004 -0.550000 15.99940
5005 OM 5005 OM OM1 5005 -0.550000 15.99940
5006 OM 5006 OM OM1 5006 -0.550000 15.99940
5007 OM 5007 OM OM1 5007 -0.550000 15.99940
5008 OM 5008 OM OM1 5008 -0.550000 15.99940
5009 OM 5009 OM OM1 5009 -0.550000 15.99940
5010 OM 5010 OM OM1 5010 -0.550000 15.99940
5011 OM 5011 OM OM1 5011 -0.550000 15.99940
5012 OM 5012 OM OM1 5012 -0.550000 15.99940
5013 OM 5013 OM OM1 5013 -0.550000 15.99940
5014 OM 5014 OM OM1 5014 -0.550000 15.99940
5015 OM 5015 OM OM1 5015 -0.550000 15.99940
5016 OM 5016 OM OM1 5016 -0.550000 15.99940
5017 OM 5017 OM OM1 5017 -0.550000 15.99940
5018 OM 5018 OM OM1 5018 -0.550000 15.99940
5019 OM 5019 OM OM1 5019 -0.550000 15.99940
5020 OM 5020 OM OM1 5020 -0.550000 15.99940
5021 OM 5021 OM OM1 5021 -0.550000 15.99940
5022 OM 5022 OM OM1 5022 -0.550000 15.99940
5023 OM 5023 OM OM1 5023 -0.550000 15.99940
5024 OM 5024 OM OM1 5024 -0.550000 15.99940
5025 OM 5025 OM OM1 5025 -0.550000 15.99940
5026 OM 5026 OM OM1 5026 -0.550000 15.99940
5027 OM 5027 OM OM1 5027 -0.550000 15.99940
5028 OM 5028 OM OM1 5028 -0.550000 15.99940
5029 OM 5029 OM OM1 5029 -0.550000 15.99940
5030 OM 5030 OM OM1 5030 -0.550000 15.99940
5031 OM 5031 OM OM1 5031 -0.550000 15.99940
5032 OM 5032 OM OM1 5032 -0.550000 15.99940
5033 OM 5033 OM OM1 5033 -0.550000 15.99940
5034 OM 5034 OM OM1 5034 -0.550000 15.99940
5035 OM 5035 OM OM1 5035 -0.550000 15.99940
5036 OM 5036 OM OM1 5036 -0.550000 15.99940
5037 OM 5037 OM OM1 5037 -0.550000 15.99940
5038 OM 5038 OM OM1 5038 -0.550000 15.99940
5039 OM 5039 OM OM1 5039 -0.550000 15.99940
5040 OM 5040 OM OM1 5040 -0.550000 15.99940
5041 OM 5041 OM OM1 5041 -0.550000 15.99940
5042 OM 5042 OM OM1 5042 -0.550000 15.99940
5043 OM 5043 OM OM1 5043 -0.550000 15.99940
5044 OM 5044 OM OM1 5044 -0.550000 15.99940
5045 OM 5045 OM OM1 5045 -0.550000 15.99940
5046 OM 5046 OM OM1 5046 -0.550000 15.99940
5047 OM 5047 OM OM1 5047 -0.550000 15.99940
5048 OM 5048 OM OM1 5048 -0.550000 15.99940
5049 OM 5049 OM OM1 5049 -0.550000 15.99940
5050 OM 5050 OM OM1 5050 -0.550000 15.99940
5051 OM 5051 OM OM1 5051 -0.550000 15.99940
5052 OM 5052 OM OM1 5052 -0.550000 15.99940
5053 OM 5053 OM OM1 5053 -0.550000 15.99940
5054 OM 5054 OM OM1 5054 -0.550000 15.99940
5055 OM 5055 OM OM1 5055 -0.550000 15.99940
5056 OM 5056 OM OM1 5056 -0.550000 15.99940
5057 OM 5057 OM OM1 5057 -0.550000 15.99940
5058 OM 5058 OM OM1 5058 -0.550000 15.99940
5059 OM 5059 OM OM1 5059 -0.550000 15.99940
5060 OM 5060 OM OM1 5060 -0.550000 15.99940
5061 OM 5061 OM OM1 5061 -0.550000 15.99940
5062 OM 5062 OM OM1 5062 -0.550000 15.99940
5063 OM 5063 OM OM1 5063 -0.550000 15.99940
5064 OM 5064 OM OM1 5064 -0.550000 15.99940
5065 OM 5065 OM OM1 5065 -0.550000 15.99940
5066 OM 5066 OM OM1 5066 -0.550000 15.99940
5067 OM 5067 OM OM1 5067 -0.550000 15.99940
5068 OM 5068 OM OM1 5068 -0.550000 15.99940
5069 OM 5069 OM OM1 5069 -0.550000 15.99940
5070 OM 5070 OM OM1 5070 -0.550000 15.99940
5071 OM 5071 OM OM1 5071 -0.550000 15.99940
5072 OM 5072 OM OM1 5072 -0.550000 15.99940
5073 OM 5073 OM OM1 5073 -0.550000 15.99940
5074 OM 5074 OM OM1 5074 -0.550000 15.99940
5075 OM 5075 OM OM1 5075 -0.550000 15.99940
5076 OM 5076 OM OM1 5076 -0.550000 15.99940
5077 OM 5077 OM OM1 5077 -0.550000 15.99940
5078 OM 5078 OM OM1 5078 -0.550000 15.99940
5079 OM 5079 OM OM1 5079 -0.550000 15.99940
5080 OM 5080 OM OM1 5080 -0.550000 15.99940
5081 OM 5081 OM OM1 5081 -0.550000 15.99940
5082 OM 5082 OM OM1 5082 -0.550000 15.99940
5083 OM 5083 OM OM1 5083 -0.550000 15.99940
5084 OM 5084 OM OM1 5084 -0.550000 15.99940
5085 OM 5085 OM OM1 5085 -0.550000 15.99940
5086 OM 5086 OM OM1 5086 -0.550000 15.99940
5087 OM 5087 OM OM1 5087 -0.550000 15.99940
5088 OM 5088 OM OM1 5088 -0.550000 15.99940
5089 OM 5089 OM OM1 5089 -0.550000 15.99940
5090 OM 5090 OM OM1 5090 -0.550000 15.99940
5091 OM 5091 OM OM1 5091 -0.550000 15.99940
5092 OM 5092 OM OM1 5092 -0.550000 15.99940
5093 OM 5093 OM OM1 5093 -0.550000 15.99940
5094 OM 5094 OM OM1 5094 -0.550000 15.99940
5095 OM 5095 OM OM1 5095 -0.550000 15.99940
5096 OM 5096 OM OM1 5096 -0.550000 15.99940
5097 OM 5097 OM OM1 5097 -0.550000 15.99940
5098 OM 5098 OM OM1 5098 -0.550000 15.99940
5099 OM 5099 OM OM1 5099 -0.550000 15.99940
5100 OM 5100 OM OM1 5100 -0.550000 15.99940
5101 OM 5101 OM OM1 5101 -0.550000 15.99940
5102 OM 5102 OM OM1 5102 -0.550000 15.99940
5103 OM 5103 OM OM1 5103 -0.550000 15.99940
5104 OM 5104 OM OM1 5104 -0.550000 15.99940
5105 OM 5105 OM OM1 5105 -0.550000 15.99940
5106 OM 5106 OM OM1 5106 -0.550000 15.99940
5107 OM 5107 OM OM1 5107 -0.550000 15.99940
5108 OM 5108 OM OM1 5108 -0.550000 15.99940
5109 OM 5109 OM OM1 5109 -0.550000 15.99940
5110 OM 5110 OM OM1 5110 -0.550000 15.99940
5111 OM 5111 OM OM1 5111 -0.550000 15.99940
5112 OM 5112 OM OM1 5112 -0.550000 15.99940
5113 OM 5113 OM OM1 5113 -0.550000 15.99940
5114 OM 5114 OM OM1 5114 -0.550000 15.99940
5115 OM 5115 OM OM1 5115 -0.550000 15.99940
5116 OM 5116 OM OM1 5116 -0.550000 15.99940
5117 OM 5117 OM OM1 5117 -0.550000 15.99940
5118 OM 5118 OM OM1 5118 -0.550000 15.99940
5119 OM 5119 OM OM1 5119 -0.550000 15.99940
5120 OM 5120 OM OM1 5120 -0.550000 15.99940
5121 OM 5121 OM OM1 5121 -0.550000 15.99940
5122 OM 5122 OM OM1 5122 -0.550000 15.99940
5123 OM 5123 OM OM1 5123 -0.550000 15.99940
5124 OM 5124 OM OM1 5124 -0.550000 15.99940
5125 OM 5125 OM OM1 5125 -0.550000 15.99940
5126 OM 5126 OM OM1 5126 -0.550000 15.99940
5127 OM 5127 OM OM1 5127 -0.550000 15.99940
5128 OM 5128 OM OM1 5128 -0.550000 15.99940
5129 OM 5129 OM OM1 5129 -0.550000 15.99940
5130 OM 5130 OM OM1 5130 -0.550000 15.99940
5131 OM 5131 OM OM1 5131 -0.550000 15.99940
5132 OM 5132 OM OM1 5132 -0.550000 15.99940
5133 OM 5133 OM OM1 5133 -0.550000 15.99940
5134 OM 5134 OM OM1 5134 -0.550000 15.99940
5135 OM 5135 OM OM1 5135 -0.550000 15.99940
5136 OM 5136 OM OM1 5136 -0.550000 15.99940
5137 OM 5137 OM OM1 5137 -0.550000 15.99940
5138 OM 5138 OM OM1 5138 -0.550000 15.99940
5139 OM 5139 OM OM1 5139 -0.550000 15.99940
5140 OM 5140 OM OM1 5140 -0.550000 15.99940
5141 OM 5141 OM OM1 5141 -0.550000 15.99940
5142 OM 5142 OM OM1 5142 -0.550000 15.99940
5143 OM 5143 OM OM1 5143 -0.550000 15.99940
5144 OM 5144 OM OM1 5144 -0.550000 15.99940
5145 OM 5145 OM OM1 5145 -0.550000 15.99940
5146 OM 5146 OM OM1 5146 -0.550000 15.99940
5147 OM 5147 OM OM1 5147 -0.550000 15.99940
5148 OM 5148 OM OM1 5148 -0.550000 15.99940
5149 OM 5149 OM OM1 5149 -0.550000 15.99940
5150 OM 5150 OM OM1 5150 -0.550000 15.99940
5151 OM 5151 OM OM1 5151 -0.550000 15.99940
5152 OM 5152 OM OM1 5152 -0.550000 15.99940
5153 OM 5153 OM OM1 5153 -0.550000 15.99940
5154 OM 5154 OM OM1 5154 -0.550000 15.99940
5155 OM 5155 OM OM1 5155 -0.550000 15.99940
5156 OM 5156 OM OM1 5156 -0.550000 15.99940
5157 OM 5157 OM OM1 5157 -0.550000 15.99940
5158 OM 5158 OM OM1 5158 -0.550000 15.99940
5159 OM 5159 OM OM1 5159 -0.550000 15.99940
5160 OM 5160 OM OM1 5160 -0.550000 15.99940
5161 OM 5161 OM OM1 5161 -0.550000 15.99940
5162 OM 5162 OM OM1 5162 -0.550000 15.99940
5163 OM 5163 OM OM1 5163 -0.550000 15.99940
5164 OM 5164 OM OM1 5164 -0.550000 15.99940
5165 OM 5165 OM OM1 5165 -0.550000 15.99940
5166 OM 5166 OM OM1 5166 -0.550000 15.99940
5167 OM 5167 OM OM1 5167 -0.550000 15.99940
5168 OM 5168 OM OM1 5168 -0.550000 15.99940
5169 OM 5169 OM OM1 5169 -0.550000 15.99940
5170 OM 5170 OM OM1 5170 -0.550000 15.99940
5171 OM 5171 OM OM1 5171 -0.550000 15.99940
5172 OM 5172 OM OM1 5172 -0.550000 15.99940
5173 OM 5173 OM OM1 5173 -0.550000 15.99940
5174 OM 5174 OM OM1 5174 -0.550000 15.99940
5175 OM 5175 OM OM1 5175 -0.550000 15.99940
5176 OM 5176 OM OM1 5176 -0.550000 15.99940
5177 OM 5177 OM OM1 5177 -0.550000 15.99940
5178 OM 5178 OM OM1 5178 -0.550000 15.99940
5179 OM 5179 OM OM1 5179 -0.550000 15.99940
5180 OM 5180 OM OM1 5180 -0.550000 15.99940
5181 OM 5181 OM OM1 5181 -0.550000 15.99940
5182 OM 5182 OM OM1 5182 -0.550000 15.99940
5183 OM 5183 OM OM1 5183 -0.550000 15.99940
5184 OM 5184 OM OM1 5184 -0.550000 15.99940
5185 OM 5185 OM OM1 5185 -0.550000 15.99940
5186 OM 5186 OM OM1 5186 -0.550000 15.99940
5187 OM 5187 OM OM1 5187 -0.550000 15.99940
5188 OM 5188 OM OM1 5188 -0.550000 15.99940
5189 OM 5189 OM OM1 5189 -0.550000 15.99940
5190 OM 5190 OM OM1 5190 -0.550000 15.99940
5191 OM 5191 OM OM1 5191 -0.550000 15.99940
5192 OM 5192 OM OM1 5192 -0.550000 15.99940
5193 OM 5193 OM OM1 5193 -0.550000 15.99940
5194 OM 5194 OM OM1 5194 -0.550000 15.99940
5195 OM 5195 OM OM1 5195 -0.550000 15.99940
5196 OM 5196 OM OM1 5196 -0.550000 15.99940
5197 OM 5197 OM OM1 5197 -0.550000 15.99940
5198 OM 5198 OM OM1 5198 -0.550000 15.99940
5199 OM 5199 OM OM1 5199 -0.550000 15.99940
5200 OM 5200 OM OM1 5200 -0.550000 15.99940
5201 OM 5201 OM OM1 5201 -0.550000 15.99940
5202 OM 5202 OM OM1 5202 -0.550000 15.99940
5203 OM 5203 OM OM1 5203 -0.550000 15.99940
5204 OM 5204 OM OM1 5204 -0.550000 15.99940
5205 OM 5205 OM OM1 5205 -0.550000 15.99940
5206 OM 5206 OM OM1 5206 -0.550000 15.99940
5207 OM 5207 OM OM1 5207 -0.550000 15.99940
5208 OM 5208 OM OM1 5208 -0.550000 15.99940
5209 OM 5209 OM OM1 5209 -0.550000 15.99940
5210 OM 5210 OM OM1 5210 -0.550000 15.99940
5211 OM 5211 OM OM1 5211 -0.550000 15.99940
5212 OM 5212 OM OM1 5212 -0.550000 15.99940
5213 OM 5213 OM OM1 5213 -0.550000 15.99940
5214 OM 5214 OM OM1 5214 -0.550000 15.99940
5215 OM 5215 OM OM1 5215 -0.550000 15.99940
5216 OM 5216 OM OM1 5216 -0.550000 15.99940
5217 OM 5217 OM OM1 5217 -0.550000 15.99940
5218 OM 5218 OM OM1 5218 -0.550000 15.99940
5219 OM 5219 OM OM1 5219 -0.550000 15.99940
5220 OM 5220 OM OM1 5220 -0.550000 15.99940
5221 OM 5221 OM OM1 5221 -0.550000 15.99940
5222 OM 5222 OM OM1 5222 -0.550000 15.99940
5223 OM 5223 OM OM1 5223 -0.550000 15.99940
5224 OM 5224 OM OM1 5224 -0.550000 15.99940
5225 OM 5225 OM OM1 5225 -0.550000 15.99940
5226 OM 5226 OM OM1 5226 -0.550000 15.99940
5227 OM 5227 OM OM1 5227 -0.550000 15.99940
5228 OM 5228 OM OM1 5228 -0.550000 15.99940
5229 OM 5229 OM OM1 5229 -0.550000 15.99940
5230 OM 5230 OM OM1 5230 -0.550000 15.99940
5231 OM 5231 OM OM1 5231 -0.550000 15.99940
5232 OM 5232 OM OM1 5232 -0.550000 15.99940
5233 OM 5233 OM OM1 5233 -0.550000 15.99940
5234 OM 5234 OM OM1 5234 -0.550000 15.99940
5235 OM 5235 OM OM1 5235 -0.550000 15.99940
5236 OM 5236 OM OM1 5236 -0.550000 15.99940
5237 OM 5237 OM OM1 5237 -0.550000 15.99940
5238 OM 5238 OM OM1 5238 -0.550000 15.99940
5239 OM 5239 OM OM1 5239 -0.550000 15.99940
5240 OM 5240 OM OM1 5240 -0.550000 15.99940
5241 OM 5241 OM OM1 5241 -0.550000 15.99940
5242 OM 5242 OM OM1 5242 -0.550000 15.99940
5243 OM 5243 OM OM1 5243 -0.550000 15.99940
5244 OM 5244 OM OM1 5244 -0.550000 15.99940
5245 OM 5245 OM OM1 5245 -0.550000 15.99940
5246 OM 5246 OM OM1 5246 -0.550000 15.99940
5247 OM 5247 OM OM1 5247 -0.550000 15.99940
5248 OM 5248 OM OM1 5248 -0.550000 15.99940
5249 OM 5249 OM OM1 5249 -0.550000 15.99940
5250 OM 5250 OM OM1 5250 -0.550000 15.99940
5251 OM 5251 OM OM1 5251 -0.550000 15.99940
5252 OM 5252 OM OM1 5252 -0.550000 15.99940
5253 OM 5253 OM OM1 5253 -0.550000 15.99940
5254 OM 5254 OM OM1 5254 -0.550000 15.99940
5255 OM 5255 OM OM1 5255 -0.550000 15.99940
5256 OM 5256 OM OM1 5256 -0.550000 15.99940
5257 OM 5257 OM OM1 5257 -0.550000 15.99940
5258 OM 5258 OM OM1 5258 -0.550000 15.99940
5259 OM 5259 OM OM1 5259 -0.550000 15.99940
5260 OM 5260 OM OM1 5260 -0.550000 15.99940
5261 OM 5261 OM OM1 5261 -0.550000 15.99940
5262 OM 5262 OM OM1 5262 -0.550000 15.99940
5263 OM 5263 OM OM1 5263 -0.550000 15.99940
5264 OM 5264 OM OM1 5264 -0.550000 15.99940
5265 OM 5265 OM OM1 5265 -0.550000 15.99940
5266 OM 5266 OM OM1 5266 -0.550000 15.99940
5267 OM 5267 OM OM1 5267 -0.550000 15.99940
5268 OM 5268 OM OM1 5268 -0.550000 15.99940
5269 OM 5269 OM OM1 5269 -0.550000 15.99940
5270 OM 5270 OM OM1 5270 -0.550000 15.99940
5271 OM 5271 OM OM1 5271 -0.550000 15.99940
5272 OM 5272 OM OM1 5272 -0.550000 15.99940
5273 OM 5273 OM OM1 5273 -0.550000 15.99940
5274 OM 5274 OM OM1 5274 -0.550000 15.99940
5275 OM 5275 OM OM1 5275 -0.550000 15.99940
5276 OM 5276 OM OM1 5276 -0.550000 15.99940
5277 OM 5277 OM OM1 5277 -0.550000 15.99940
5278 OM 5278 OM OM1 5278 -0.550000 15.99940
5279 OM 5279 OM OM1 5279 -0.550000 15.99940
5280 OM 5280 OM OM1 5280 -0.550000 15.99940
5281 OM 5281 OM OM1 5281 -0.550000 15.99940
5282 OM 5282 OM OM1 5282 -0.550000 15.99940
5283 OM 5283 OM OM1 5283 -0.550000 15.99940
5284 OM 5284 OM OM1 5284 -0.550000 15.99940
5285 OM 5285 OM OM1 5285 -0.550000 15.99940
5286 OM 5286 OM OM1 5286 -0.550000 15.99940
5287 OM 5287 OM OM1 5287 -0.550000 15.99940
5288 OM 5288 OM OM1 5288 -0.550000 15.99940
5289 OM 5289 OM OM1 5289 -0.550000 15.99940
5290 OM 5290 OM OM1 5290 -0.550000 15.99940
5291 OM 5291 OM OM1 5291 -0.550000 15.99940
5292 OM 5292 OM OM1 5292 -0.550000 15.99940
5293 OM 5293 OM OM1 5293 -0.550000 15.99940
5294 OM 5294 OM OM1 5294 -0.550000 15.99940
5295 OM 5295 OM OM1 5295 -0.550000 15.99940
5296 OM 5296 OM OM1 5296 -0.550000 15.99940
5297 OM 5297 OM OM1 5297 -0.550000 15.99940
5298 OM 5298 OM OM1 5298 -0.550000 15.99940
5299 OM 5299 OM OM1 5299 -0.550000 15.99940
5300 OM 5300 OM OM1 5300 -0.550000 15.99940
5301 OM 5301 OM OM1 5301 -0.550000 15.99940
5302 OM 5302 OM OM1 5302 -0.550000 15.99940
5303 OM 5303 OM OM1 5303 -0.550000 15.99940
5304 OM 5304 OM OM1 5304 -0.550000 15.99940
5305 OM 5305 OM OM1 5305 -0.550000 15.99940
5306 OM 5306 OM OM1 5306 -0.550000 15.99940
5307 OM 5307 OM OM1 5307 -0.550000 15.99940
5308 OM 5308 OM OM1 5308 -0.550000 15.99940
5309 OM 5309 OM OM1 5309 -0.550000 15.99940
5310 OM 5310 OM OM1 5310 -0.550000 15.99940
5311 OM 5311 OM OM1 5311 -0.550000 15.99940
5312 OM 5312 OM OM1 5312 -0.550000 15.99940
5313 OM 5313 OM OM1 5313 -0.550000 15.99940
5314 OM 5314 OM OM1 5314 -0.550000 15.99940
5315 OM 5315 OM OM1 5315 -0.550000 15.99940
5316 OM 5316 OM OM1 5316 -0.550000 15.99940
5317 OM 5317 OM OM1 5317 -0.550000 15.99940
5318 OM 5318 OM OM1 5318 -0.550000 15.99940
5319 OM 5319 OM OM1 5319 -0.550000 15.99940
5320 OM 5320 OM OM1 5320 -0.550000 15.99940
5321 OM 5321 OM OM1 5321 -0.550000 15.99940
5322 OM 5322 OM OM1 5322 -0.550000 15.99940
5323 OM 5323 OM OM1 5323 -0.550000 15.99940
5324 OM 5324 OM OM1 5324 -0.550000 15.99940
5325 OM 5325 OM OM1 5325 -0.550000 15.99940
5326 OM 5326 OM OM1 5326 -0.550000 15.99940
5327 OM 5327 OM OM1 5327 -0.550000 15.99940
5328 OM 5328 OM OM1 5328 -0.550000 15.99940
5329 OM 5329 OM OM1 5329 -0.550000 15.99940
5330 OM 5330 OM OM1 5330 -0.550000 15.99940
5331 OM 5331 OM OM1 5331 -0.550000 15.99940
5332 OM 5332 OM OM1 5332 -0.550000 15.99940
5333 OM 5333 OM OM1 5333 -0.550000 15.99940
5334 OM 5334 OM OM1 5334 -0.550000 15.99940
5335 OM 5335 OM OM1 5335 -0.550000 15.99940
5336 OM 5336 OM OM1 5336 -0.550000 15.99940
5337 OM 5337 OM OM1 5337 -0.550000 15.99940
5338 OM 5338 OM OM1 5338 -0.550000 15.99940
5339 OM 5339 OM OM1 5339 -0.550000 15.99940
5340 OM 5340 OM OM1 5340 -0.550000 15.99940
5341 OM 5341 OM OM1 5341 -0.550000 15.99940
5342 OM 5342 OM OM1 5342 -0.550000 15.99940
5343 OM 5343 OM OM1 5343 -0.550000 15.99940
5344 OM 5344 OM OM1 5344 -0.550000 15.99940
5345 OM 5345 OM OM1 5345 -0.550000 15.99940
5346 OM 5346 OM OM1 5346 -0.550000 15.99940
5347 OM 5347 OM OM1 5347 -0.550000 15.99940
5348 OM 5348 OM OM1 5348 -0.550000 15.99940
5349 OM 5349 OM OM1 5349 -0.550000 15.99940
5350 OM 5350 OM OM1 5350 -0.550000 15.99940
5351 OM 5351 OM OM1 5351 -0.550000 15.99940
5352 OM 5352 OM OM1 5352 -0.550000 15.99940
5353 OM 5353 OM OM1 5353 -0.550000 15.99940
5354 OM 5354 OM OM1 5354 -0.550000 15.99940
5355 OM 5355 OM OM1 5355 -0.550000 15.99940
5356 OM 5356 OM OM1 5356 -0.550000 15.99940
5357 OM 5357 OM OM1 5357 -0.550000 15.99940
5358 OM 5358 OM OM1 5358 -0.550000 15.99940
5359 OM 5359 OM OM1 5359 -0.550000 15.99940
5360 OM 5360 OM OM1 5360 -0.550000 15.99940
5361 OM 5361 OM OM1 5361 -0.550000 15.99940
5362 OM 5362 OM OM1 5362 -0.550000 15.99940
5363 OM 5363 OM OM1 5363 -0.550000 15.99940
5364 OM 5364 OM OM1 5364 -0.550000 15.99940
5365 OM 5365 OM OM1 5365 -0.550000 15.99940
5366 OM 5366 OM OM1 5366 -0.550000 15.99940
5367 OM 5367 OM OM1 5367 -0.550000 15.99940
5368 OM 5368 OM OM1 5368 -0.550000 15.99940
5369 OM 5369 OM OM1 5369 -0.550000 15.99940
5370 OM 5370 OM OM1 5370 -0.550000 15.99940
5371 OM 5371 OM OM1 5371 -0.550000 15.99940
5372 OM 5372 OM OM1 5372 -0.550000 15.99940
5373 OM 5373 OM OM1 5373 -0.550000 15.99940
5374 OM 5374 OM OM1 5374 -0.550000 15.99940
5375 OM 5375 OM OM1 5375 -0.550000 15.99940
5376 OM 5376 OM OM1 5376 -0.550000 15.99940
5377 OM 5377 OM OM1 5377 -0.550000 15.99940
5378 OM 5378 OM OM1 5378 -0.550000 15.99940
5379 OM 5379 OM OM1 5379 -0.550000 15.99940
5380 OM 5380 OM OM1 5380 -0.550000 15.99940
5381 OM 5381 OM OM1 5381 -0.550000 15.99940
5382 OM 5382 OM OM1 5382 -0.550000 15.99940
5383 OM 5383 OM OM1 5383 -0.550000 15.99940
5384 OM 5384 OM OM1 5384 -0.550000 15.99940
5385 OM 5385 OM OM1 5385 -0.550000 15.99940
5386 OM 5386 OM OM1 5386 -0.550000 15.99940
5387 OM 5387 OM OM1 5387 -0.550000 15.99940
5388 OM 5388 OM OM1 5388 -0.550000 15.99940
5389 OM 5389 OM OM1 5389 -0.550000 15.99940
5390 OM 5390 OM OM1 5390 -0.550000 15.99940
5391 OM 5391 OM OM1 5391 -0.550000 15.99940
5392 OM 5392 OM OM1 5392 -0.550000 15.99940
5393 OM 5393 OM OM1 5393 -0.550000 15.99940
5394 OM 5394 OM OM1 5394 -0.550000 15.99940
5395 OM 5395 OM OM1 5395 -0.550000 15.99940
5396 OM 5396 OM OM1 5396 -0.550000 15.99940
5397 OM 5397 OM OM1 5397 -0.550000 15.99940
5398 OM 5398 OM OM1 5398 -0.550000 15.99940
5399 OM 5399 OM OM1 5399 -0.550000 15.99940
5400 OM 5400 OM OM1 5400 -0.550000 15.99940
5401 OM 5401 OM OM1 5401 -0.550000 15.99940
5402 OM 5402 OM OM1 5402 -0.550000 15.99940
5403 OM 5403 OM OM1 5403 -0.550000 15.99940
5404 OM 5404 OM OM1 5404 -0.550000 15.99940
5405 OM 5405 OM OM1 5405 -0.550000 15.99940
5406 OM 5406 OM OM1 5406 -0.550000 15.99940
5407 OM 5407 OM OM1 5407 -0.550000 15.99940
5408 OM 5408 OM OM1 5408 -0.550000 15.99940
5409 OM 5409 OM OM1 5409 -0.550000 15.99940
5410 OM 5410 OM OM1 5410 -0.550000 15.99940
5411 OM 5411 OM OM1 5411 -0.550000 15.99940
5412 OM 5412 OM OM1 5412 -0.550000 15.99940
5413 OM 5413 OM OM1 5413 -0.550000 15.99940
5414 OM 5414 OM OM1 5414 -0.550000 15.99940
5415 OM 5415 OM OM1 5415 -0.550000 15.99940
5416 OM 5416 OM OM1 5416 -0.550000 15.99940
5417 OM 5417 OM OM1 5417 -0.550000 15.99940
5418 OM 5418 OM OM1 5418 -0.550000 15.99940
5419 OM 5419 OM OM1 5419 -0.550000 15.99940
5420 OM 5420 OM OM1 5420 -0.550000 15.99940
5421 OM 5421 OM OM1 5421 -0.550000 15.99940
5422 OM 5422 OM OM1 5422 -0.550000 15.99940
5423 OM 5423 OM OM1 5423 -0.550000 15.99940
5424 OM 5424 OM OM1 5424 -0.550000 15.99940
5425 OM 5425 OM OM1 5425 -0.550000 15.99940
5426 OM 5426 OM OM1 5426 -0.550000 15.99940
5427 OM 5427 OM OM1 5427 -0.550000 15.99940
5428 OM 5428 OM OM1 5428 -0.550000 15.99940
5429 OM 5429 OM OM1 5429 -0.550000 15.99940
5430 OM 5430 OM OM1 5430 -0.550000 15.99940
5431 OM 5431 OM OM1 5431 -0.550000 15.99940
5432 OM 5432 OM OM1 5432 -0.550000 15.99940
5433 OM 5433 OM OM1 5433 -0.550000 15.99940
5434 OM 5434 OM OM1 5434 -0.550000 15.99940
5435 OM 5435 OM OM1 5435 -0.550000 15.99940
5436 OM 5436 OM OM1 5436 -0.550000 15.99940
5437 OM 5437 OM OM1 5437 -0.550000 15.99940
5438 OM 5438 OM OM1 5438 -0.550000 15.99940
5439 OM 5439 OM OM1 5439 -0.550000 15.99940
5440 OM 5440 OM OM1 5440 -0.550000 15.99940
5441 OM 5441 OM OM1 5441 -0.550000 15.99940
5442 OM 5442 OM OM1 5442 -0.550000 15.99940
5443 OM 5443 OM OM1 5443 -0.550000 15.99940
5444 OM 5444 OM OM1 5444 -0.550000 15.99940
5445 OM 5445 OM OM1 5445 -0.550000 15.99940
5446 OM 5446 OM OM1 5446 -0.550000 15.99940
5447 OM 5447 OM OM1 5447 -0.550000 15.99940
5448 OM 5448 OM OM1 5448 -0.550000 15.99940
5449 OM 5449 OM OM1 5449 -0.550000 15.99940
5450 OM 5450 OM OM1 5450 -0.550000 15.99940
5451 OM 5451 OM OM1 5451 -0.550000 15.99940
5452 OM 5452 OM OM1 5452 -0.550000 15.99940
5453 OM 5453 OM OM1 5453 -0.550000 15.99940
5454 OM 5454 OM OM1 5454 -0.550000 15.99940
5455 OM 5455 OM OM1 5455 -0.550000 15.99940
5456 OM 5456 OM OM1 5456 -0.550000 15.99940
5457 OM 5457 OM OM1 5457 -0.550000 15.99940
5458 OM 5458 OM OM1 5458 -0.550000 15.99940
5459 OM 5459 OM OM1 5459 -0.550000 15.99940
5460 OM 5460 OM OM1 5460 -0.550000 15.99940
5461 OM 5461 OM OM1 5461 -0.550000 15.99940
5462 OM 5462 OM OM1 5462 -0.550000 15.99940
5463 OM 5463 OM OM1 5463 -0.550000 15.99940
5464 OM 5464 OM OM1 5464 -0.550000 15.99940
5465 OM 5465 OM OM1 5465 -0.550000 15.99940
5466 OM 5466 OM OM1 5466 -0.550000 15.99940
5467 OM 5467 OM OM1 5467 -0.550000 15.99940
5468 OM 5468 OM OM1 5468 -0.550000 15.99940
5469 OM 5469 OM OM1 5469 -0.550000 15.99940
5470 OM 5470 OM OM1 5470 -0.550000 15.99940
5471 OM 5471 OM OM1 5471 -0.550000 15.99940
5472 OM 5472 OM OM1 5472 -0.550000 15.99940
5473 OM 5473 OM OM1 5473 -0.550000 15.99940
5474 OM 5474 OM OM1 5474 -0.550000 15.99940
5475 OM 5475 OM OM1 5475 -0.550000 15.99940
5476 OM 5476 OM OM1 5476 -0.550000 15.99940
5477 OM 5477 OM OM1 5477 -0.550000 15.99940
5478 OM 5478 OM OM1 5478 -0.550000 15.99940
5479 OM 5479 OM OM1 5479 -0.550000 15.99940
5480 OM 5480 OM OM1 5480 -0.550000 15.99940
5481 OM 5481 OM OM1 5481 -0.550000 15.99940
5482 OM 5482 OM OM1 5482 -0.550000 15.99940
5483 OM 5483 OM OM1 5483 -0.550000 15.99940
5484 OM 5484 OM OM1 5484 -0.550000 15.99940
5485 OM 5485 OM OM1 5485 -0.550000 15.99940
5486 OM 5486 OM OM1 5486 -0.550000 15.99940
5487 OM 5487 OM OM1 5487 -0.550000 15.99940
5488 OM 5488 OM OM1 5488 -0.550000 15.99940
5489 OM 5489 OM OM1 5489 -0.550000 15.99940
5490 OM 5490 OM OM1 5490 -0.550000 15.99940
5491 OM 5491 OM OM1 5491 -0.550000 15.99940
5492 OM 5492 OM OM1 5492 -0.550000 15.99940
5493 OM 5493 OM OM1 5493 -0.550000 15.99940
5494 OM 5494 OM OM1 5494 -0.550000 15.99940
5495 OM 5495 OM OM1 5495 -0.550000 15.99940
5496 OM 5496 OM OM1 5496 -0.550000 15.99940
5497 OM 5497 OM OM1 5497 -0.550000 15.99940
5498 OM 5498 OM OM1 5498 -0.550000 15.99940
5499 OM 5499 OM OM1 5499 -0.550000 15.99940
5500 OM 5500 OM OM1 5500 -0.550000 15.99940
5501 OM 5501 OM OM1 5501 -0.550000 15.99940
5502 OM 5502 OM OM1 5502 -0.550000 15.99940
5503 OM 5503 OM OM1 5503 -0.550000 15.99940
5504 OM 5504 OM OM1 5504 -0.550000 15.99940
5505 OM 5505 OM OM1 5505 -0.550000 15.99940
5506 OM 5506 OM OM1 5506 -0.550000 15.99940
5507 OM 5507 OM OM1 5507 -0.550000 15.99940
5508 OM 5508 OM OM1 5508 -0.550000 15.99940
5509 OM 5509 OM OM1 5509 -0.550000 15.99940
5510 OM 5510 OM OM1 5510 -0.550000 15.99940
5511 OM 5511 OM OM1 5511 -0.550000 15.99940
5512 OM 5512 OM OM1 5512 -0.550000 15.99940
5513 OM 5513 OM OM1 5513 -0.550000 15.99940
5514 OM 5514 OM OM1 5514 -0.550000 15.99940
5515 OM 5515 OM OM1 5515 -0.550000 15.99940
5516 OM 5516 OM OM1 5516 -0.550000 15.99940
5517 OM 5517 OM OM1 5517 -0.550000 15.99940
5518 OM 5518 OM OM1 5518 -0.550000 15.99940
5519 OM 5519 OM OM1 5519 -0.550000 15.99940
5520 OM 5520 OM OM1 5520 -0.550000 15.99940
5521 OM 5521 OM OM1 5521 -0.550000 15.99940
5522 OM 5522 OM OM1 5522 -0.550000 15.99940
5523 OM 5523 OM OM1 5523 -0.550000 15.99940
5524 OM 5524 OM OM1 5524 -0.550000 15.99940
5525 OM 5525 OM OM1 5525 -0.550000 15.99940
5526 OM 5526 OM OM1 5526 -0.550000 15.99940
5527 OM 5527 OM OM1 5527 -0.550000 15.99940
5528 OM 5528 OM OM1 5528 -0.550000 15.99940
5529 OM 5529 OM OM1 5529 -0.550000 15.99940
5530 OM 5530 OM OM1 5530 -0.550000 15.99940
5531 OM 5531 OM OM1 5531 -0.550000 15.99940
5532 OM 5532 OM OM1 5532 -0.550000 15.99940
5533 OM 5533 OM OM1 5533 -0.550000 15.99940
5534 OM 5534 OM OM1 5534 -0.550000 15.99940
5535 OM 5535 OM OM1 5535 -0.550000 15.99940
5536 OM 5536 OM OM1 5536 -0.550000 15.99940
5537 OM 5537 OM OM1 5537 -0.550000 15.99940
5538 OM 5538 OM OM1 5538 -0.550000 15.99940
5539 OM 5539 OM OM1 5539 -0.550000 15.99940
5540 OM 5540 OM OM1 5540 -0.550000 15.99940
5541 OM 5541 OM OM1 5541 -0.550000 15.99940
5542 OM 5542 OM OM1 5542 -0.550000 15.99940
5543 OM 5543 OM OM1 5543 -0.550000 15.99940
5544 OM 5544 OM OM1 5544 -0.550000 15.99940
5545 OM 5545 OM OM1 5545 -0.550000 15.99940
5546 OM 5546 OM OM1 5546 -0.550000 15.99940
5547 OM 5547 OM OM1 5547 -0.550000 15.99940
5548 OM 5548 OM OM1 5548 -0.550000 15.99940
5549 OM 5549 OM OM1 5549 -0.550000 15.99940
5550 OM 5550 OM OM1 5550 -0.550000 15.99940
5551 OM 5551 OM OM1 5551 -0.550000 15.99940
5552 OM 5552 OM OM1 5552 -0.550000 15.99940
5553 OM 5553 OM OM1 5553 -0.550000 15.99940
5554 OM 5554 OM OM1 5554 -0.550000 15.99940
5555 OM 5555 OM OM1 5555 -0.550000 15.99940
5556 OM 5556 OM OM1 5556 -0.550000 15.99940
5557 OM 5557 OM OM1 5557 -0.550000 15.99940
5558 OM 5558 OM OM1 5558 -0.550000 15.99940
5559 OM 5559 OM OM1 5559 -0.550000 15.99940
5560 OM 5560 OM OM1 5560 -0.550000 15.99940
5561 OM 5561 OM OM1 5561 -0.550000 15.99940
5562 OM 5562 OM OM1 5562 -0.550000 15.99940
5563 OM 5563 OM OM1 5563 -0.550000 15.99940
5564 OM 5564 OM OM1 5564 -0.550000 15.99940
5565 OM 5565 OM OM1 5565 -0.550000 15.99940
5566 OM 5566 OM OM1 5566 -0.550000 15.99940
5567 OM 5567 OM OM1 5567 -0.550000 15.99940
5568 OM 5568 OM OM1 5568 -0.550000 15.99940
5569 OM 5569 OM OM1 5569 -0.550000 15.99940
5570 OM 5570 OM OM1 5570 -0.550000 15.99940
5571 OM 5571 OM OM1 5571 -0.550000 15.99940
5572 OM 5572 OM OM1 5572 -0.550000 15.99940
5573 OM 5573 OM OM1 5573 -0.550000 15.99940
5574 OM 5574 OM OM1 5574 -0.550000 15.99940
5575 OM 5575 OM OM1 5575 -0.550000 15.99940
5576 OM 5576 OM OM1 5576 -0.550000 15.99940
5577 OM 5577 OM OM1 5577 -0.550000 15.99940
5578 OM 5578 OM OM1 5578 -0.550000 15.99940
5579 OM 5579 OM OM1 5579 -0.550000 15.99940
5580 OM 5580 OM OM1 5580 -0.550000 15.99940
5581 OM 5581 OM OM1 5581 -0.550000 15.99940
5582 OM 5582 OM OM1 5582 -0.550000 15.99940
5583 OM 5583 OM OM1 5583 -0.550000 15.99940
5584 OM 5584 OM OM1 5584 -0.550000 15.99940
5585 OM 5585 OM OM1 5585 -0.550000 15.99940
5586 OM 5586 OM OM1 5586 -0.550000 15.99940
5587 OM 5587 OM OM1 5587 -0.550000 15.99940
5588 OM 5588 OM OM1 5588 -0.550000 15.99940
5589 OM 5589 OM OM1 5589 -0.550000 15.99940
5590 OM 5590 OM OM1 5590 -0.550000 15.99940
5591 OM 5591 OM OM1 5591 -0.550000 15.99940
5592 OM 5592 OM OM1 5592 -0.550000 15.99940
5593 OM 5593 OM OM1 5593 -0.550000 15.99940
5594 OM 5594 OM OM1 5594 -0.550000 15.99940
5595 OM 5595 OM OM1 5595 -0.550000 15.99940
5596 OM 5596 OM OM1 5596 -0.550000 15.99940
5597 OM 5597 OM OM1 5597 -0.550000 15.99940
5598 OM 5598 OM OM1 5598 -0.550000 15.99940
5599 OM 5599 OM OM1 5599 -0.550000 15.99940
5600 OM 5600 OM OM1 5600 -0.550000 15.99940
5601 OM 5601 OM OM1 5601 -0.550000 15.99940
5602 OM 5602 OM OM1 5602 -0.550000 15.99940
5603 OM 5603 OM OM1 5603 -0.550000 15.99940
5604 OM 5604 OM OM1 5604 -0.550000 15.99940
5605 OM 5605 OM OM1 5605 -0.550000 15.99940
5606 OM 5606 OM OM1 5606 -0.550000 15.99940
5607 OM 5607 OM OM1 5607 -0.550000 15.99940
5608 OM 5608 OM OM1 5608 -0.550000 15.99940
5609 OM 5609 OM OM1 5609 -0.550000 15.99940
5610 OM 5610 OM OM1 5610 -0.550000 15.99940
5611 OM 5611 OM OM1 5611 -0.550000 15.99940
5612 OM 5612 OM OM1 5612 -0.550000 15.99940
5613 OM 5613 OM OM1 5613 -0.550000 15.99940
5614 OM 5614 OM OM1 5614 -0.550000 15.99940
5615 OM 5615 OM OM1 5615 -0.550000 15.99940
5616 OM 5616 OM OM1 5616 -0.550000 15.99940
5617 OM 5617 OM OM1 5617 -0.550000 15.99940
5618 OM 5618 OM OM1 5618 -0.550000 15.99940
5619 OM 5619 OM OM1 5619 -0.550000 15.99940
5620 OM 5620 OM OM1 5620 -0.550000 15.99940
5621 OM 5621 OM OM1 5621 -0.550000 15.99940
5622 OM 5622 OM OM1 5622 -0.550000 15.99940
5623 OM 5623 OM OM1 5623 -0.550000 15.99940
5624 OM 5624 OM OM1 5624 -0.550000 15.99940
5625 OM 5625 OM OM1 5625 -0.550000 15.99940
5626 OM 5626 OM OM1 5626 -0.550000 15.99940
5627 OM 5627 OM OM1 5627 -0.550000 15.99940
5628 OM 5628 OM OM1 5628 -0.550000 15.99940
5629 OM 5629 OM OM1 5629 -0.550000 15.99940
5630 OM 5630 OM OM1 5630 -0.550000 15.99940
5631 OM 5631 OM OM1 5631 -0.550000 15.99940
5632 OM 5632 OM OM1 5632 -0.550000 15.99940
5633 OM 5633 OM OM1 5633 -0.550000 15.99940
5634 OM 5634 OM OM1 5634 -0.550000 15.99940
5635 OM 5635 OM OM1 5635 -0.550000 15.99940
5636 OM 5636 OM OM1 5636 -0.550000 15.99940
5637 OM 5637 OM OM1 5637 -0.550000 15.99940
5638 OM 5638 OM OM1 5638 -0.550000 15.99940
5639 OM 5639 OM OM1 5639 -0.550000 15.99940
5640 OM 5640 OM OM1 5640 -0.550000 15.99940
5641 OM 5641 OM OM1 5641 -0.550000 15.99940
5642 OM 5642 OM OM1 5642 -0.550000 15.99940
5643 OM 5643 OM OM1 5643 -0.550000 15.99940
5644 OM 5644 OM OM1 5644 -0.550000 15.99940
5645 OM 5645 OM OM1 5645 -0.550000 15.99940
5646 OM 5646 OM OM1 5646 -0.550000 15.99940
5647 OM 5647 OM OM1 5647 -0.550000 15.99940
5648 OM 5648 OM OM1 5648 -0.550000 15.99940
5649 OM 5649 OM OM1 5649 -0.550000 15.99940
5650 OM 5650 OM OM1 5650 -0.550000 15.99940
5651 OM 5651 OM OM1 5651 -0.550000 15.99940
5652 OM 5652 OM OM1 5652 -0.550000 15.99940
5653 OM 5653 OM OM1 5653 -0.550000 15.99940
5654 OM 5654 OM OM1 5654 -0.550000 15.99940
5655 OM 5655 OM OM1 5655 -0.550000 15.99940
5656 OM 5656 OM OM1 5656 -0.550000 15.99940
5657 OM 5657 OM OM1 5657 -0.550000 15.99940
5658 OM 5658 OM OM1 5658 -0.550000 15.99940
5659 OM 5659 OM OM1 5659 -0.550000 15.99940
5660 OM 5660 OM OM1 5660 -0.550000 15.99940
5661 OM 5661 OM OM1 5661 -0.550000 15.99940
5662 OM 5662 OM OM1 5662 -0.550000 15.99940
5663 OM 5663 OM OM1 5663 -0.550000 15.99940
5664 OM 5664 OM OM1 5664 -0.550000 15.99940
5665 OM 5665 OM OM1 5665 -0.550000 15.99940
5666 OM 5666 OM OM1 5666 -0.550000 15.99940
5667 OM 5667 OM OM1 5667 -0.550000 15.99940
5668 OM 5668 OM OM1 5668 -0.550000 15.99940
5669 OM 5669 OM OM1 5669 -0.550000 15.99940
5670 OM 5670 OM OM1 5670 -0.550000 15.99940
5671 OM 5671 OM OM1 5671 -0.550000 15.99940
5672 OM 5672 OM OM1 5672 -0.550000 15.99940
5673 OM 5673 OM OM1 5673 -0.550000 15.99940
5674 OM 5674 OM OM1 5674 -0.550000 15.99940
5675 OM 5675 OM OM1 5675 -0.550000 15.99940
5676 OM 5676 OM OM1 5676 -0.550000 15.99940
5677 OM 5677 OM OM1 5677 -0.550000 15.99940
5678 OM 5678 OM OM1 5678 -0.550000 15.99940
5679 OM 5679 OM OM1 5679 -0.550000 15.99940
5680 OM 5680 OM OM1 5680 -0.550000 15.99940
5681 OM 5681 OM OM1 5681 -0.550000 15.99940
5682 OM 5682 OM OM1 5682 -0.550000 15.99940
5683 OM 5683 OM OM1 5683 -0.550000 15.99940
5684 OM 5684 OM OM1 5684 -0.550000 15.99940
5685 OM 5685 OM OM1 5685 -0.550000 15.99940
5686 OM 5686 OM OM1 5686 -0.550000 15.99940
5687 OM 5687 OM OM1 5687 -0.550000 15.99940
5688 OM 5688 OM OM1 5688 -0.550000 15.99940
5689 OM 5689 OM OM1 5689 -0.550000 15.99940
5690 OM 5690 OM OM1 5690 -0.550000 15.99940
5691 OM 5691 OM OM1 5691 -0.550000 15.99940
5692 OM 5692 OM OM1 5692 -0.550000 15.99940
5693 OM 5693 OM OM1 5693 -0.550000 15.99940
5694 OM 5694 OM OM1 5694 -0.550000 15.99940
5695 OM 5695 OM OM1 5695 -0.550000 15.99940
5696 OM 5696 OM OM1 5696 -0.550000 15.99940
5697 OM 5697 OM OM1 5697 -0.550000 15.99940
5698 OM 5698 OM OM1 5698 -0.550000 15.99940
5699 OM 5699 OM OM1 5699 -0.550000 15.99940
5700 OM 5700 OM OM1 5700 -0.550000 15.99940
5701 OM 5701 OM OM1 5701 -0.550000 15.99940
5702 OM 5702 OM OM1 5702 -0.550000 15.99940
5703 OM 5703 OM OM1 5703 -0.550000 15.99940
5704 OM 5704 OM OM1 5704 -0.550000 15.99940
5705 OM 5705 OM OM1 5705 -0.550000 15.99940
5706 OM 5706 OM OM1 5706 -0.550000 15.99940
5707 OM 5707 OM OM1 5707 -0.550000 15.99940
5708 OM 5708 OM OM1 5708 -0.550000 15.99940
5709 OM 5709 OM OM1 5709 -0.550000 15.99940
5710 OM 5710 OM OM1 5710 -0.550000 15.99940
5711 OM 5711 OM OM1 5711 -0.550000 15.99940
5712 OM 5712 OM OM1 5712 -0.550000 15.99940
5713 OM 5713 OM OM1 5713 -0.550000 15.99940
5714 OM 5714 OM OM1 5714 -0.550000 15.99940
5715 OM 5715 OM OM1 5715 -0.550000 15.99940
5716 OM 5716 OM OM1 5716 -0.550000 15.99940
5717 OM 5717 OM OM1 5717 -0.550000 15.99940
5718 OM 5718 OM OM1 5718 -0.550000 15.99940
5719 OM 5719 OM OM1 5719 -0.550000 15.99940
5720 OM 5720 OM OM1 5720 -0.550000 15.99940
5721 OM 5721 OM OM1 5721 -0.550000 15.99940
5722 OM 5722 OM OM1 5722 -0.550000 15.99940
5723 OM 5723 OM OM1 5723 -0.550000 15.99940
5724 OM 5724 OM OM1 5724 -0.550000 15.99940
5725 OM 5725 OM OM1 5725 -0.550000 15.99940
5726 OM 5726 OM OM1 5726 -0.550000 15.99940
5727 OM 5727 OM OM1 5727 -0.550000 15.99940
5728 OM 5728 OM OM1 5728 -0.550000 15.99940
5729 OM 5729 OM OM1 5729 -0.550000 15.99940
5730 OM 5730 OM OM1 5730 -0.550000 15.99940
5731 OM 5731 OM OM1 5731 -0.550000 15.99940
5732 OM 5732 OM OM1 5732 -0.550000 15.99940
5733 OM 5733 OM OM1 5733 -0.550000 15.99940
5734 OM 5734 OM OM1 5734 -0.550000 15.99940
5735 OM 5735 OM OM1 5735 -0.550000 15.99940
5736 OM 5736 OM OM1 5736 -0.550000 15.99940
5737 OM 5737 OM OM1 5737 -0.550000 15.99940
5738 OM 5738 OM OM1 5738 -0.550000 15.99940
5739 OM 5739 OM OM1 5739 -0.550000 15.99940
5740 OM 5740 OM OM1 5740 -0.550000 15.99940
5741 OM 5741 OM OM1 5741 -0.550000 15.99940
5742 OM 5742 OM OM1 5742 -0.550000 15.99940
5743 OM 5743 OM OM1 5743 -0.550000 15.99940
5744 OM 5744 OM OM1 5744 -0.550000 15.99940
5745 OM 5745 OM OM1 5745 -0.550000 15.99940
5746 OM 5746 OM OM1 5746 -0.550000 15.99940
5747 OM 5747 OM OM1 5747 -0.550000 15.99940
5748 OM 5748 OM OM1 5748 -0.550000 15.99940
5749 OM 5749 OM OM1 5749 -0.550000 15.99940
5750 OM 5750 OM OM1 5750 -0.550000 15.99940
5751 OM 5751 OM OM1 5751 -0.550000 15.99940
5752 OM 5752 OM OM1 5752 -0.550000 15.99940
5753 OM 5753 OM OM1 5753 -0.550000 15.99940
5754 OM 5754 OM OM1 5754 -0.550000 15.99940
5755 OM 5755 OM OM1 5755 -0.550000 15.99940
5756 OM 5756 OM OM1 5756 -0.550000 15.99940
5757 OM 5757 OM OM1 5757 -0.550000 15.99940
5758 OM 5758 OM OM1 5758 -0.550000 15.99940
5759 OM 5759 OM OM1 5759 -0.550000 15.99940
5760 OM 5760 OM OM1 5760 -0.550000 15.99940
5761 OM 5761 OM OM1 5761 -0.550000 15.99940
5762 OM 5762 OM OM1 5762 -0.550000 15.99940
5763 OM 5763 OM OM1 5763 -0.550000 15.99940
5764 OM 5764 OM OM1 5764 -0.550000 15.99940
5765 OM 5765 OM OM1 5765 -0.550000 15.99940
5766 OM 5766 OM OM1 5766 -0.550000 15.99940
5767 OM 5767 OM OM1 5767 -0.550000 15.99940
5768 OM 5768 OM OM1 5768 -0.550000 15.99940
5769 OM 5769 OM OM1 5769 -0.550000 15.99940
5770 OM 5770 OM OM1 5770 -0.550000 15.99940
5771 OM 5771 OM OM1 5771 -0.550000 15.99940
5772 OM 5772 OM OM1 5772 -0.550000 15.99940
5773 OM 5773 OM OM1 5773 -0.550000 15.99940
5774 OM 5774 OM OM1 5774 -0.550000 15.99940
5775 OM 5775 OM OM1 5775 -0.550000 15.99940
5776 OM 5776 OM OM1 5776 -0.550000 15.99940
5777 OM 5777 OM OM1 5777 -0.550000 15.99940
5778 OM 5778 OM OM1 5778 -0.550000 15.99940
5779 OM 5779 OM OM1 5779 -0.550000 15.99940
5780 OM 5780 OM OM1 5780 -0.550000 15.99940
5781 OM 5781 OM OM1 5781 -0.550000 15.99940
5782 OM 5782 OM OM1 5782 -0.550000 15.99940
5783 OM 5783 OM OM1 5783 -0.550000 15.99940
5784 OM 5784 OM OM1 5784 -0.550000 15.99940
5785 OM 5785 OM OM1 5785 -0.550000 15.99940
5786 OM 5786 OM OM1 5786 -0.550000 15.99940
5787 OM 5787 OM OM1 5787 -0.550000 15.99940
5788 OM 5788 OM OM1 5788 -0.550000 15.99940
5789 OM 5789 OM OM1 5789 -0.550000 15.99940
5790 OM 5790 OM OM1 5790 -0.550000 15.99940
5791 OM 5791 OM OM1 5791 -0.550000 15.99940
5792 OM 5792 OM OM1 5792 -0.550000 15.99940
5793 OM 5793 OM OM1 5793 -0.550000 15.99940
5794 OM 5794 OM OM1 5794 -0.550000 15.99940
5795 OM 5795 OM OM1 5795 -0.550000 15.99940
5796 OM 5796 OM OM1 5796 -0.550000 15.99940
5797 OM 5797 OM OM1 5797 -0.550000 15.99940
5798 OM 5798 OM OM1 5798 -0.550000 15.99940
5799 OM 5799 OM OM1 5799 -0.550000 15.99940
5800 OM 5800 OM OM1 5800 -0.550000 15.99940
5801 OM 5801 OM OM1 5801 -0.550000 15.99940
5802 OM 5802 OM OM1 5802 -0.550000 15.99940
5803 OM 5803 OM OM1 5803 -0.550000 15.99940
5804 OM 5804 OM OM1 5804 -0.550000 15.99940
5805 OM 5805 OM OM1 5805 -0.550000 15.99940
5806 OM 5806 OM OM1 5806 -0.550000 15.99940
5807 OM 5807 OM OM1 5807 -0.550000 15.99940
5808 OM 5808 OM OM1 5808 -0.550000 15.99940
5809 OM 5809 OM OM1 5809 -0.550000 15.99940
5810 OM 5810 OM OM1 5810 -0.550000 15.99940
5811 OM 5811 OM OM1 5811 -0.550000 15.99940
5812 OM 5812 OM OM1 5812 -0.550000 15.99940
5813 OM 5813 OM OM1 5813 -0.550000 15.99940
5814 OM 5814 OM OM1 5814 -0.550000 15.99940
5815 OM 5815 OM OM1 5815 -0.550000 15.99940
5816 OM 5816 OM OM1 5816 -0.550000 15.99940
5817 OM 5817 OM OM1 5817 -0.550000 15.99940
5818 OM 5818 OM OM1 5818 -0.550000 15.99940
5819 OM 5819 OM OM1 5819 -0.550000 15.99940
5820 OM 5820 OM OM1 5820 -0.550000 15.99940
5821 OM 5821 OM OM1 5821 -0.550000 15.99940
5822 OM 5822 OM OM1 5822 -0.550000 15.99940
5823 OM 5823 OM OM1 5823 -0.550000 15.99940
5824 OM 5824 OM OM1 5824 -0.550000 15.99940
5825 OM 5825 OM OM1 5825 -0.550000 15.99940
5826 OM 5826 OM OM1 5826 -0.550000 15.99940
5827 OM 5827 OM OM1 5827 -0.550000 15.99940
5828 OM 5828 OM OM1 5828 -0.550000 15.99940
5829 OM 5829 OM OM1 5829 -0.550000 15.99940
5830 OM 5830 OM OM1 5830 -0.550000 15.99940
5831 OM 5831 OM OM1 5831 -0.550000 15.99940
5832 OM 5832 OM OM1 5832 -0.550000 15.99940
5833 OM 5833 OM OM1 5833 -0.550000 15.99940
5834 OM 5834 OM OM1 5834 -0.550000 15.99940
5835 OM 5835 OM OM1 5835 -0.550000 15.99940
5836 OM 5836 OM OM1 5836 -0.550000 15.99940
5837 OM 5837 OM OM1 5837 -0.550000 15.99940
5838 OM 5838 OM OM1 5838 -0.550000 15.99940
5839 OM 5839 OM OM1 5839 -0.550000 15.99940
5840 OM 5840 OM OM1 5840 -0.550000 15.99940
5841 OM 5841 OM OM1 5841 -0.550000 15.99940
5842 OM 5842 OM OM1 5842 -0.550000 15.99940
5843 OM 5843 OM OM1 5843 -0.550000 15.99940
5844 OM 5844 OM OM1 5844 -0.550000 15.99940
5845 OM 5845 OM OM1 5845 -0.550000 15.99940
5846 OM 5846 OM OM1 5846 -0.550000 15.99940
5847 OM 5847 OM OM1 5847 -0.550000 15.99940
5848 OM 5848 OM OM1 5848 -0.550000 15.99940
5849 OM 5849 OM OM1 5849 -0.550000 15.99940
5850 OM 5850 OM OM1 5850 -0.550000 15.99940
5851 OM 5851 OM OM1 5851 -0.550000 15.99940
5852 OM 5852 OM OM1 5852 -0.550000 15.99940
5853 OM 5853 OM OM1 5853 -0.550000 15.99940
5854 OM 5854 OM OM1 5854 -0.550000 15.99940
5855 OM 5855 OM OM1 5855 -0.550000 15.99940
5856 OM 5856 OM OM1 5856 -0.550000 15.99940
5857 OM 5857 OM OM1 5857 -0.550000 15.99940
5858 OM 5858 OM OM1 5858 -0.550000 15.99940
5859 OM 5859 OM OM1 5859 -0.550000 15.99940
5860 OM 5860 OM OM1 5860 -0.550000 15.99940
5861 OM 5861 OM OM1 5861 -0.550000 15.99940
5862 OM 5862 OM OM1 5862 -0.550000 15.99940
5863 OM 5863 OM OM1 5863 -0.550000 15.99940
5864 OM 5864 OM OM1 5864 -0.550000 15.99940
5865 OM 5865 OM OM1 5865 -0.550000 15.99940
5866 OM 5866 OM OM1 5866 -0.550000 15.99940
5867 OM 5867 OM OM1 5867 -0.550000 15.99940
5868 OM 5868 OM OM1 5868 -0.550000 15.99940
5869 OM 5869 OM OM1 5869 -0.550000 15.99940
5870 OM 5870 OM OM1 5870 -0.550000 15.99940
5871 OM 5871 OM OM1 5871 -0.550000 15.99940
5872 OM 5872 OM OM1 5872 -0.550000 15.99940
5873 OM 5873 OM OM1 5873 -0.550000 15.99940
5874 OM 5874 OM OM1 5874 -0.550000 15.99940
5875 OM 5875 OM OM1 5875 -0.550000 15.99940
5876 OM 5876 OM OM1 5876 -0.550000 15.99940
5877 OM 5877 OM OM1 5877 -0.550000 15.99940
5878 OM 5878 OM OM1 5878 -0.550000 15.99940
5879 OM 5879 OM OM1 5879 -0.550000 15.99940
5880 OM 5880 OM OM1 5880 -0.550000 15.99940
5881 OM 5881 OM OM1 5881 -0.550000 15.99940
5882 OM 5882 OM OM1 5882 -0.550000 15.99940
5883 OM 5883 OM OM1 5883 -0.550000 15.99940
5884 OM 5884 OM OM1 5884 -0.550000 15.99940
5885 OM 5885 OM OM1 5885 -0.550000 15.99940
5886 OM 5886 OM OM1 5886 -0.550000 15.99940
5887 OM 5887 OM OM1 5887 -0.550000 15.99940
5888 OM 5888 OM OM1 5888 -0.550000 15.99940
5889 OM 5889 OM OM1 5889 -0.550000 15.99940
5890 OM 5890 OM OM1 5890 -0.550000 15.99940
5891 OM 5891 OM OM1 5891 -0.550000 15.99940
5892 OM 5892 OM OM1 5892 -0.550000 15.99940
5893 OM 5893 OM OM1 5893 -0.550000 15.99940
5894 OM 5894 OM OM1 5894 -0.550000 15.99940
5895 OM 5895 OM OM1 5895 -0.550000 15.99940
5896 OM 5896 OM OM1 5896 -0.550000 15.99940
5897 OM 5897 OM OM1 5897 -0.550000 15.99940
5898 OM 5898 OM OM1 5898 -0.550000 15.99940
5899 OM 5899 OM OM1 5899 -0.550000 15.99940
5900 OM 5900 OM OM1 5900 -0.550000 15.99940
5901 OM 5901 OM OM1 5901 -0.550000 15.99940
5902 OM 5902 OM OM1 5902 -0.550000 15.99940
5903 OM 5903 OM OM1 5903 -0.550000 15.99940
5904 OM 5904 OM OM1 5904 -0.550000 15.99940
5905 OM 5905 OM OM1 5905 -0.550000 15.99940
5906 OM 5906 OM OM1 5906 -0.550000 15.99940
5907 OM 5907 OM OM1 5907 -0.550000 15.99940
5908 OM 5908 OM OM1 5908 -0.550000 15.99940
5909 OM 5909 OM OM1 5909 -0.550000 15.99940
5910 OM 5910 OM OM1 5910 -0.550000 15.99940
5911 OM 5911 OM OM1 5911 -0.550000 15.99940
5912 OM 5912 OM OM1 5912 -0.550000 15.99940
5913 OM 5913 OM OM1 5913 -0.550000 15.99940
5914 OM 5914 OM OM1 5914 -0.550000 15.99940
5915 OM 5915 OM OM1 5915 -0.550000 15.99940
5916 OM 5916 OM OM1 5916 -0.550000 15.99940
5917 OM 5917 OM OM1 5917 -0.550000 15.99940
5918 OM 5918 OM OM1 5918 -0.550000 15.99940
5919 OM 5919 OM OM1 5919 -0.550000 15.99940
5920 OM 5920 OM OM1 5920 -0.550000 15.99940
5921 OM 5921 OM OM1 5921 -0.550000 15.99940
5922 OM 5922 OM OM1 5922 -0.550000 15.99940
5923 OM 5923 OM OM1 5923 -0.550000 15.99940
5924 OM 5924 OM OM1 5924 -0.550000 15.99940
5925 OM 5925 OM OM1 5925 -0.550000 15.99940
5926 OM 5926 OM OM1 5926 -0.550000 15.99940
5927 OM 5927 OM OM1 5927 -0.550000 15.99940
5928 OM 5928 OM OM1 5928 -0.550000 15.99940
5929 OM 5929 OM OM1 5929 -0.550000 15.99940
5930 OM 5930 OM OM1 5930 -0.550000 15.99940
5931 OM 5931 OM OM1 5931 -0.550000 15.99940
5932 OM 5932 OM OM1 5932 -0.550000 15.99940
5933 OM 5933 OM OM1 5933 -0.550000 15.99940
5934 OM 5934 OM OM1 5934 -0.550000 15.99940
5935 OM 5935 OM OM1 5935 -0.550000 15.99940
5936 OM 5936 OM OM1 5936 -0.550000 15.99940
5937 OM 5937 OM OM1 5937 -0.550000 15.99940
5938 OM 5938 OM OM1 5938 -0.550000 15.99940
5939 OM 5939 OM OM1 5939 -0.550000 15.99940
5940 OM 5940 OM OM1 5940 -0.550000 15.99940
5941 OM 5941 OM OM1 5941 -0.550000 15.99940
5942 OM 5942 OM OM1 5942 -0.550000 15.99940
5943 OM 5943 OM OM1 5943 -0.550000 15.99940
5944 OM 5944 OM OM1 5944 -0.550000 15.99940
5945 OM 5945 OM OM1 5945 -0.550000 15.99940
5946 OM 5946 OM OM1 5946 -0.550000 15.99940
5947 OM 5947 OM OM1 5947 -0.550000 15.99940
5948 OM 5948 OM OM1 5948 -0.550000 15.99940
5949 OM 5949 OM OM1 5949 -0.550000 15.99940
5950 OM 5950 OM OM1 5950 -0.550000 15.99940
5951 OM 5951 OM OM1 5951 -0.550000 15.99940
5952 OM 5952 OM OM1 5952 -0.550000 15.99940
5953 OM 5953 OM OM1 5953 -0.550000 15.99940
5954 OM 5954 OM OM1 5954 -0.550000 15.99940
5955 OM 5955 OM OM1 5955 -0.550000 15.99940
5956 OM 5956 OM OM1 5956 -0.550000 15.99940
5957 OM 5957 OM OM1 5957 -0.550000 15.99940
5958 OM 5958 OM OM1 5958 -0.550000 15.99940
5959 OM 5959 OM OM1 5959 -0.550000 15.99940
5960 OM 5960 OM OM1 5960 -0.550000 15.99940
5961 OM 5961 OM OM1 5961 -0.550000 15.99940
5962 OM 5962 OM OM1 5962 -0.550000 15.99940
5963 OM 5963 OM OM1 5963 -0.550000 15.99940
5964 OM 5964 OM OM1 5964 -0.550000 15.99940
5965 OM 5965 OM OM1 5965 -0.550000 15.99940
5966 OM 5966 OM OM1 5966 -0.550000 15.99940
5967 OM 5967 OM OM1 5967 -0.550000 15.99940
5968 OM 5968 OM OM1 5968 -0.550000 15.99940
5969 OM 5969 OM OM1 5969 -0.550000 15.99940
5970 OM 5970 OM OM1 5970 -0.550000 15.99940
5971 OM 5971 OM OM1 5971 -0.550000 15.99940
5972 OM 5972 OM OM1 5972 -0.550000 15.99940
5973 OM 5973 OM OM1 5973 -0.550000 15.99940
5974 OM 5974 OM OM1 5974 -0.550000 15.99940
5975 OM 5975 OM OM1 5975 -0.550000 15.99940
5976 OM 5976 OM OM1 5976 -0.550000 15.99940
5977 OM 5977 OM OM1 5977 -0.550000 15.99940
5978 OM 5978 OM OM1 5978 -0.550000 15.99940
5979 OM 5979 OM OM1 5979 -0.550000 15.99940
5980 OM 5980 OM OM1 5980 -0.550000 15.99940
5981 OM 5981 OM OM1 5981 -0.550000 15.99940
5982 OM 5982 OM OM1 5982 -0.550000 15.99940
5983 OM 5983 OM OM1 5983 -0.550000 15.99940
5984 OM 5984 OM OM1 5984 -0.550000 15.99940
5985 OM 5985 OM OM1 5985 -0.550000 15.99940
5986 OM 5986 OM OM1 5986 -0.550000 15.99940
5987 OM 5987 OM OM1 5987 -0.550000 15.99940
5988 OM 5988 OM OM1 5988 -0.550000 15.99940
5989 OM 5989 OM OM1 5989 -0.550000 15.99940
5990 OM 5990 OM OM1 5990 -0.550000 15.99940
5991 OM 5991 OM OM1 5991 -0.550000 15.99940
5992 OM 5992 OM OM1 5992 -0.550000 15.99940
5993 OM 5993 OM OM1 5993 -0.550000 15.99940
5994 OM 5994 OM OM1 5994 -0.550000 15.99940
5995 OM 5995 OM OM1 5995 -0.550000 15.99940
5996 OM 5996 OM OM1 5996 -0.550000 15.99940
5997 OM 5997 OM OM1 5997 -0.550000 15.99940
5998 OM 5998 OM OM1 5998 -0.550000 15.99940
5999 OM 5999 OM OM1 5999 -0.550000 15.99940
6000 OM 6000 OM OM1 6000 -0.550000 15.99940
6001 OM 6001 OM OM1 6001 -0.550000 15.99940
6002 OM 6002 OM OM1 6002 -0.550000 15.99940
6003 OM 6003 OM OM1 6003 -0.550000 15.99940
6004 OM 6004 OM OM1 6004 -0.550000 15.99940
6005 OM 6005 OM OM1 6005 -0.550000 15.99940
6006 OM 6006 OM OM1 6006 -0.550000 15.99940
6007 OM 6007 OM OM1 6007 -0.550000 15.99940
6008 OM 6008 OM OM1 6008 -0.550000 15.99940
6009 OM 6009 OM OM1 6009 -0.550000 15.99940
6010 OM 6010 OM OM1 6010 -0.550000 15.99940
6011 OM 6011 OM OM1 6011 -0.550000 15.99940
6012 OM 6012 OM OM1 6012 -0.550000 15.99940
6013 OM 6013 OM OM1 6013 -0.550000 15.99940
6014 OM 6014 OM OM1 6014 -0.550000 15.99940
6015 OM 6015 OM OM1 6015 -0.550000 15.99940
6016 OM 6016 OM OM1 6016 -0.550000 15.99940
6017 OM 6017 OM OM1 6017 -0.550000 15.99940
6018 OM 6018 OM OM1 6018 -0.550000 15.99940
6019 OM 6019 OM OM1 6019 -0.550000 15.99940
6020 OM 6020 OM OM1 6020 -0.550000 15.99940
6021 OM 6021 OM OM1 6021 -0.550000 15.99940
6022 OM 6022 OM OM1 6022 -0.550000 15.99940
6023 OM 6023 OM OM1 6023 -0.550000 15.99940
6024 OM 6024 OM OM1 6024 -0.550000 15.99940
6025 OM 6025 OM OM1 6025 -0.550000 15.99940
6026 OM 6026 OM OM1 6026 -0.550000 15.99940
6027 OM 6027 OM OM1 6027 -0.550000 15.99940
6028 OM 6028 OM OM1 6028 -0.550000 15.99940
6029 OM 6029 OM OM1 6029 -0.550000 15.99940
6030 OM 6030 OM OM1 6030 -0.550000 15.99940
6031 OM 6031 OM OM1 6031 -0.550000 15.99940
6032 OM 6032 OM OM1 6032 -0.550000 15.99940
6033 OM 6033 OM OM1 6033 -0.550000 15.99940
6034 OM 6034 OM OM1 6034 -0.550000 15.99940
6035 OM 6035 OM OM1 6035 -0.550000 15.99940
6036 OM 6036 OM OM1 6036 -0.550000 15.99940
6037 OM 6037 OM OM1 6037 -0.550000 15.99940
6038 OM 6038 OM OM1 6038 -0.550000 15.99940
6039 OM 6039 OM OM1 6039 -0.550000 15.99940
6040 OM 6040 OM OM1 6040 -0.550000 15.99940
6041 OM 6041 OM OM1 6041 -0.550000 15.99940
6042 OM 6042 OM OM1 6042 -0.550000 15.99940
6043 OM 6043 OM OM1 6043 -0.550000 15.99940
6044 OM 6044 OM OM1 6044 -0.550000 15.99940
6045 OM 6045 OM OM1 6045 -0.550000 15.99940
6046 OM 6046 OM OM1 6046 -0.550000 15.99940
6047 OM 6047 OM OM1 6047 -0.550000 15.99940
6048 OM 6048 OM OM1 6048 -0.550000 15.99940
6049 OM 6049 OM OM1 6049 -0.550000 15.99940
6050 OM 6050 OM OM1 6050 -0.550000 15.99940
6051 OM 6051 OM OM1 6051 -0.550000 15.99940
6052 OM 6052 OM OM1 6052 -0.550000 15.99940
6053 OM 6053 OM OM1 6053 -0.550000 15.99940
6054 OM 6054 OM OM1 6054 -0.550000 15.99940
6055 OM 6055 OM OM1 6055 -0.550000 15.99940
6056 OM 6056 OM OM1 6056 -0.550000 15.99940
6057 OM 6057 OM OM1 6057 -0.550000 15.99940
6058 OM 6058 OM OM1 6058 -0.550000 15.99940
6059 OM 6059 OM OM1 6059 -0.550000 15.99940
6060 OM 6060 OM OM1 6060 -0.550000 15.99940
6061 OM 6061 OM OM1 6061 -0.550000 15.99940
6062 OM 6062 OM OM1 6062 -0.550000 15.99940
6063 OM 6063 OM OM1 6063 -0.550000 15.99940
6064 OM 6064 OM OM1 6064 -0.550000 15.99940
6065 OM 6065 OM OM1 6065 -0.550000 15.99940
6066 OM 6066 OM OM1 6066 -0.550000 15.99940
6067 OM 6067 OM OM1 6067 -0.550000 15.99940
6068 OM 6068 OM OM1 6068 -0.550000 15.99940
6069 OM 6069 OM OM1 6069 -0.550000 15.99940
6070 OM 6070 OM OM1 6070 -0.550000 15.99940
6071 OM 6071 OM OM1 6071 -0.550000 15.99940
6072 OM 6072 OM OM1 6072 -0.550000 15.99940
6073 OM 6073 OM OM1 6073 -0.550000 15.99940
6074 OM 6074 OM OM1 6074 -0.550000 15.99940
6075 OM 6075 OM OM1 6075 -0.550000 15.99940
6076 OM 6076 OM OM1 6076 -0.550000 15.99940
6077 OM 6077 OM OM1 6077 -0.550000 15.99940
6078 OM 6078 OM OM1 6078 -0.550000 15.99940
6079 OM 6079 OM OM1 6079 -0.550000 15.99940
6080 OM 6080 OM OM1 6080 -0.550000 15.99940
6081 OM 6081 OM OM1 6081 -0.550000 15.99940
6082 OM 6082 OM OM1 6082 -0.550000 15.99940
6083 OM 6083 OM OM1 6083 -0.550000 15.99940
6084 OM 6084 OM OM1 6084 -0.550000 15.99940
6085 OM 6085 OM OM1 6085 -0.550000 15.99940
6086 OM 6086 OM OM1 6086 -0.550000 15.99940
6087 OM 6087 OM OM1 6087 -0.550000 15.99940
6088 OM 6088 OM OM1 6088 -0.550000 15.99940
6089 OM 6089 OM OM1 6089 -0.550000 15.99940
6090 OM 6090 OM OM1 6090 -0.550000 15.99940
6091 OM 6091 OM OM1 6091 -0.550000 15.99940
6092 OM 6092 OM OM1 6092 -0.550000 15.99940
6093 OM 6093 OM OM1 6093 -0.550000 15.99940
6094 OM 6094 OM OM1 6094 -0.550000 15.99940
6095 OM 6095 OM OM1 6095 -0.550000 15.99940
6096 OM 6096 OM OM1 6096 -0.550000 15.99940
6097 OM 6097 OM OM1 6097 -0.550000 15.99940
6098 OM 6098 OM OM1 6098 -0.550000 15.99940
6099 OM 6099 OM OM1 6099 -0.550000 15.99940
6100 OM 6100 OM OM1 6100 -0.550000 15.99940
6101 OM 6101 OM OM1 6101 -0.550000 15.99940
6102 OM 6102 OM OM1 6102 -0.550000 15.99940
6103 OM 6103 OM OM1 6103 -0.550000 15.99940
6104 OM 6104 OM OM1 6104 -0.550000 15.99940
6105 OM 6105 OM OM1 6105 -0.550000 15.99940
6106 OM 6106 OM OM1 6106 -0.550000 15.99940
6107 OM 6107 OM OM1 6107 -0.550000 15.99940
6108 OM 6108 OM OM1 6108 -0.550000 15.99940
6109 OM 6109 OM OM1 6109 -0.550000 15.99940
6110 OM 6110 OM OM1 6110 -0.550000 15.99940
6111 OM 6111 OM OM1 6111 -0.550000 15.99940
6112 OM 6112 OM OM1 6112 -0.550000 15.99940
6113 OM 6113 OM OM1 6113 -0.550000 15.99940
6114 OM 6114 OM OM1 6114 -0.550000 15.99940
6115 OM 6115 OM OM1 6115 -0.550000 15.99940
6116 OM 6116 OM OM1 6116 -0.550000 15.99940
6117 OM 6117 OM OM1 6117 -0.550000 15.99940
6118 OM 6118 OM OM1 6118 -0.550000 15.99940
6119 OM 6119 OM OM1 6119 -0.550000 15.99940
6120 OM 6120 OM OM1 6120 -0.550000 15.99940
6121 OM 6121 OM OM1 6121 -0.550000 15.99940
6122 OM 6122 OM OM1 6122 -0.550000 15.99940
6123 OM 6123 OM OM1 6123 -0.550000 15.99940
6124 OM 6124 OM OM1 6124 -0.550000 15.99940
6125 OM 6125 OM OM1 6125 -0.550000 15.99940
6126 OM 6126 OM OM1 6126 -0.550000 15.99940
6127 OM 6127 OM OM1 6127 -0.550000 15.99940
6128 OM 6128 OM OM1 6128 -0.550000 15.99940
6129 OM 6129 OM OM1 6129 -0.550000 15.99940
6130 OM 6130 OM OM1 6130 -0.550000 15.99940
6131 OM 6131 OM OM1 6131 -0.550000 15.99940
6132 OM 6132 OM OM1 6132 -0.550000 15.99940
6133 OM 6133 OM OM1 6133 -0.550000 15.99940
6134 OM 6134 OM OM1 6134 -0.550000 15.99940
6135 OM 6135 OM OM1 6135 -0.550000 15.99940
6136 OM 6136 OM OM1 6136 -0.550000 15.99940
6137 OM 6137 OM OM1 6137 -0.550000 15.99940
6138 OM 6138 OM OM1 6138 -0.550000 15.99940
6139 OM 6139 OM OM1 6139 -0.550000 15.99940
6140 OM 6140 OM OM1 6140 -0.550000 15.99940
6141 OM 6141 OM OM1 6141 -0.550000 15.99940
6142 OM 6142 OM OM1 6142 -0.550000 15.99940
6143 OM 6143 OM OM1 6143 -0.550000 15.99940
6144 OM 6144 OM OM1 6144 -0.550000 15.99940
6145 OM 6145 OM OM1 6145 -0.550000 15.99940
6146 OM 6146 OM OM1 6146 -0.550000 15.99940
6147 OM 6147 OM OM1 6147 -0.550000 15.99940
6148 OM 6148 OM OM1 6148 -0.550000 15.99940
6149 OM 6149 OM OM1 6149 -0.550000 15.99940
6150 OM 6150 OM OM1 6150 -0.550000 15.99940
6151 OM 6151 OM OM1 6151 -0.550000 15.99940
6152 OM 6152 OM OM1 6152 -0.550000 15.99940
6153 OM 6153 OM OM1 6153 -0.550000 15.99940
6154 OM 6154 OM OM1 6154 -0.550000 15.99940
6155 OM 6155 OM OM1 6155 -0.550000 15.99940
6156 OM 6156 OM OM1 6156 -0.550000 15.99940
6157 OM 6157 OM OM1 6157 -0.550000 15.99940
6158 OM 6158 OM OM1 6158 -0.550000 15.99940
6159 OM 6159 OM OM1 6159 -0.550000 15.99940
6160 OM 6160 OM OM1 6160 -0.550000 15.99940
6161 OM 6161 OM OM1 6161 -0.550000 15.99940
6162 OM 6162 OM OM1 6162 -0.550000 15.99940
6163 OM 6163 OM OM1 6163 -0.550000 15.99940
6164 OM 6164 OM OM1 6164 -0.550000 15.99940
6165 OM 6165 OM OM1 6165 -0.550000 15.99940
6166 OM 6166 OM OM1 6166 -0.550000 15.99940
6167 OM 6167 OM OM1 6167 -0.550000 15.99940
6168 OM 6168 OM OM1 6168 -0.550000 15.99940
6169 OM 6169 OM OM1 6169 -0.550000 15.99940
6170 OM 6170 OM OM1 6170 -0.550000 15.99940
6171 OM 6171 OM OM1 6171 -0.550000 15.99940
6172 OM 6172 OM OM1 6172 -0.550000 15.99940
6173 OM 6173 OM OM1 6173 -0.550000 15.99940
6174 OM 6174 OM OM1 6174 -0.550000 15.99940
6175 OM 6175 OM OM1 6175 -0.550000 15.99940
6176 OM 6176 OM OM1 6176 -0.550000 15.99940
6177 OM 6177 OM OM1 6177 -0.550000 15.99940
6178 OM 6178 OM OM1 6178 -0.550000 15.99940
6179 OM 6179 OM OM1 6179 -0.550000 15.99940
6180 OM 6180 OM OM1 6180 -0.550000 15.99940
6181 OM 6181 OM OM1 6181 -0.550000 15.99940
6182 OM 6182 OM OM1 6182 -0.550000 15.99940
6183 OM 6183 OM OM1 6183 -0.550000 15.99940
6184 OM 6184 OM OM1 6184 -0.550000 15.99940
6185 OM 6185 OM OM1 6185 -0.550000 15.99940
6186 OM 6186 OM OM1 6186 -0.550000 15.99940
6187 OM 6187 OM OM1 6187 -0.550000 15.99940
6188 OM 6188 OM OM1 6188 -0.550000 15.99940
6189 OM 6189 OM OM1 6189 -0.550000 15.99940
6190 OM 6190 OM OM1 6190 -0.550000 15.99940
6191 OM 6191 OM OM1 6191 -0.550000 15.99940
6192 OM 6192 OM OM1 6192 -0.550000 15.99940
6193 OM 6193 OM OM1 6193 -0.550000 15.99940
6194 OM 6194 OM OM1 6194 -0.550000 15.99940
6195 OM 6195 OM OM1 6195 -0.550000 15.99940
6196 OM 6196 OM OM1 6196 -0.550000 15.99940
6197 OM 6197 OM OM1 6197 -0.550000 15.99940
6198 OM 6198 OM OM1 6198 -0.550000 15.99940
6199 OM 6199 OM OM1 6199 -0.550000 15.99940
6200 OM 6200 OM OM1 6200 -0.550000 15.99940
6201 OM 6201 OM OM1 6201 -0.550000 15.99940
6202 OM 6202 OM OM1 6202 -0.550000 15.99940
6203 OM 6203 OM OM1 6203 -0.550000 15.99940
6204 OM 6204 OM OM1 6204 -0.550000 15.99940
6205 OM 6205 OM OM1 6205 -0.550000 15.99940
6206 OM 6206 OM OM1 6206 -0.550000 15.99940
6207 OM 6207 OM OM1 6207 -0.550000 15.99940
6208 OM 6208 OM OM1 6208 -0.550000 15.99940
6209 OM 6209 OM OM1 6209 -0.550000 15.99940
6210 OM 6210 OM OM1 6210 -0.550000 15.99940
6211 OM 6211 OM OM1 6211 -0.550000 15.99940
6212 OM 6212 OM OM1 6212 -0.550000 15.99940
6213 OM 6213 OM OM1 6213 -0.550000 15.99940
6214 OM 6214 OM OM1 6214 -0.550000 15.99940
6215 OM 6215 OM OM1 6215 -0.550000 15.99940
6216 OM 6216 OM OM1 6216 -0.550000 15.99940
6217 OM 6217 OM OM1 6217 -0.550000 15.99940
6218 OM 6218 OM OM1 6218 -0.550000 15.99940
6219 OM 6219 OM OM1 6219 -0.550000 15.99940
6220 OM 6220 OM OM1 6220 -0.550000 15.99940
6221 OM 6221 OM OM1 6221 -0.550000 15.99940
6222 OM 6222 OM OM1 6222 -0.550000 15.99940
6223 OM 6223 OM OM1 6223 -0.550000 15.99940
6224 OM 6224 OM OM1 6224 -0.550000 15.99940
6225 OM 6225 OM OM1 6225 -0.550000 15.99940
6226 OM 6226 OM OM1 6226 -0.550000 15.99940
6227 OM 6227 OM OM1 6227 -0.550000 15.99940
6228 OM 6228 OM OM1 6228 -0.550000 15.99940
6229 OM 6229 OM OM1 6229 -0.550000 15.99940
6230 OM 6230 OM OM1 6230 -0.550000 15.99940
6231 OM 6231 OM OM1 6231 -0.550000 15.99940
6232 OM 6232 OM OM1 6232 -0.550000 15.99940
6233 OM 6233 OM OM1 6233 -0.550000 15.99940
6234 OM 6234 OM OM1 6234 -0.550000 15.99940
6235 OM 6235 OM OM1 6235 -0.550000 15.99940
6236 OM 6236 OM OM1 6236 -0.550000 15.99940
6237 OM 6237 OM OM1 6237 -0.550000 15.99940
6238 OM 6238 OM OM1 6238 -0.550000 15.99940
6239 OM 6239 OM OM1 6239 -0.550000 15.99940
6240 OM 6240 OM OM1 6240 -0.550000 15.99940
6241 OM 6241 OM OM1 6241 -0.550000 15.99940
6242 OM 6242 OM OM1 6242 -0.550000 15.99940
6243 OM 6243 OM OM1 6243 -0.550000 15.99940
6244 OM 6244 OM OM1 6244 -0.550000 15.99940
6245 OM 6245 OM OM1 6245 -0.550000 15.99940
6246 OM 6246 OM OM1 6246 -0.550000 15.99940
6247 OM 6247 OM OM1 6247 -0.550000 15.99940
6248 OM 6248 OM OM1 6248 -0.550000 15.99940
6249 OM 6249 OM OM1 6249 -0.550000 15.99940
6250 OM 6250 OM OM1 6250 -0.550000 15.99940
6251 OM 6251 OM OM1 6251 -0.550000 15.99940
6252 OM 6252 OM OM1 6252 -0.550000 15.99940
6253 OM 6253 OM OM1 6253 -0.550000 15.99940
6254 OM 6254 OM OM1 6254 -0.550000 15.99940
6255 OM 6255 OM OM1 6255 -0.550000 15.99940
6256 OM 6256 OM OM1 6256 -0.550000 15.99940
6257 OM 6257 OM OM1 6257 -0.550000 15.99940
6258 OM 6258 OM OM1 6258 -0.550000 15.99940
6259 OM 6259 OM OM1 6259 -0.550000 15.99940
6260 OM 6260 OM OM1 6260 -0.550000 15.99940
6261 OM 6261 OM OM1 6261 -0.550000 15.99940
6262 OM 6262 OM OM1 6262 -0.550000 15.99940
6263 OM 6263 OM OM1 6263 -0.550000 15.99940
6264 OM 6264 OM OM1 6264 -0.550000 15.99940
6265 OM 6265 OM OM1 6265 -0.550000 15.99940
6266 OM 6266 OM OM1 6266 -0.550000 15.99940
6267 OM 6267 OM OM1 6267 -0.550000 15.99940
6268 OM 6268 OM OM1 6268 -0.550000 15.99940
6269 OM 6269 OM OM1 6269 -0.550000 15.99940
6270 OM 6270 OM OM1 6270 -0.550000 15.99940
6271 OM 6271 OM OM1 6271 -0.550000 15.99940
6272 OM 6272 OM OM1 6272 -0.550000 15.99940
6273 OM 6273 OM OM1 6273 -0.550000 15.99940
6274 OM 6274 OM OM1 6274 -0.550000 15.99940
6275 OM 6275 OM OM1 6275 -0.550000 15.99940
6276 OM 6276 OM OM1 6276 -0.550000 15.99940
6277 OM 6277 OM OM1 6277 -0.550000 15.99940
6278 OM 6278 OM OM1 6278 -0.550000 15.99940
6279 OM 6279 OM OM1 6279 -0.550000 15.99940
6280 OM 6280 OM OM1 6280 -0.550000 15.99940
6281 OM 6281 OM OM1 6281 -0.550000 15.99940
6282 OM 6282 OM OM1 6282 -0.550000 15.99940
6283 OM 6283 OM OM1 6283 -0.550000 15.99940
6284 OM 6284 OM OM1 6284 -0.550000 15.99940
6285 OM 6285 OM OM1 6285 -0.550000 15.99940
6286 OM 6286 OM OM1 6286 -0.550000 15.99940
6287 OM 6287 OM OM1 6287 -0.550000 15.99940
6288 OM 6288 OM OM1 6288 -0.550000 15.99940
6289 OM 6289 OM OM1 6289 -0.550000 15.99940
6290 OM 6290 OM OM1 6290 -0.550000 15.99940
6291 OM 6291 OM OM1 6291 -0.550000 15.99940
6292 OM 6292 OM OM1 6292 -0.550000 15.99940
6293 OM 6293 OM OM1 6293 -0.550000 15.99940
6294 OM 6294 OM OM1 6294 -0.550000 15.99940
6295 OM 6295 OM OM1 6295 -0.550000 15.99940
6296 OM 6296 OM OM1 6296 -0.550000 15.99940
6297 OM 6297 OM OM1 6297 -0.550000 15.99940
6298 OM 6298 OM OM1 6298 -0.550000 15.99940
6299 OM 6299 OM OM1 6299 -0.550000 15.99940
6300 OM 6300 OM OM1 6300 -0.550000 15.99940
6301 OM 6301 OM OM1 6301 -0.550000 15.99940
6302 OM 6302 OM OM1 6302 -0.550000 15.99940
6303 OM 6303 OM OM1 6303 -0.550000 15.99940
6304 OM 6304 OM OM1 6304 -0.550000 15.99940
6305 OM 6305 OM OM1 6305 -0.550000 15.99940
6306 OM 6306 OM OM1 6306 -0.550000 15.99940
6307 OM 6307 OM OM1 6307 -0.550000 15.99940
6308 OM 6308 OM OM1 6308 -0.550000 15.99940
6309 OM 6309 OM OM1 6309 -0.550000 15.99940
6310 OM 6310 OM OM1 6310 -0.550000 15.99940
6311 OM 6311 OM OM1 6311 -0.550000 15.99940
6312 OM 6312 OM OM1 6312 -0.550000 15.99940
6313 OM 6313 OM OM1 6313 -0.550000 15.99940
6314 OM 6314 OM OM1 6314 -0.550000 15.99940
6315 OM 6315 OM OM1 6315 -0.550000 15.99940
6316 OM 6316 OM OM1 6316 -0.550000 15.99940
6317 OM 6317 OM OM1 6317 -0.550000 15.99940
6318 OM 6318 OM OM1 6318 -0.550000 15.99940
6319 OM 6319 OM OM1 6319 -0.550000 15.99940
6320 OM 6320 OM OM1 6320 -0.550000 15.99940
6321 OM 6321 OM OM1 6321 -0.550000 15.99940
6322 OM 6322 OM OM1 6322 -0.550000 15.99940
6323 OM 6323 OM OM1 6323 -0.550000 15.99940
6324 OM 6324 OM OM1 6324 -0.550000 15.99940
6325 OM 6325 OM OM1 6325 -0.550000 15.99940
6326 OM 6326 OM OM1 6326 -0.550000 15.99940
6327 OM 6327 OM OM1 6327 -0.550000 15.99940
6328 OM 6328 OM OM1 6328 -0.550000 15.99940
6329 OM 6329 OM OM1 6329 -0.550000 15.99940
6330 OM 6330 OM OM1 6330 -0.550000 15.99940
6331 OM 6331 OM OM1 6331 -0.550000 15.99940
6332 OM 6332 OM OM1 6332 -0.550000 15.99940
6333 OM 6333 OM OM1 6333 -0.550000 15.99940
6334 OM 6334 OM OM1 6334 -0.550000 15.99940
6335 OM 6335 OM OM1 6335 -0.550000 15.99940
6336 OM 6336 OM OM1 6336 -0.550000 15.99940
6337 OM 6337 OM OM1 6337 -0.550000 15.99940
6338 OM 6338 OM OM1 6338 -0.550000 15.99940
6339 OM 6339 OM OM1 6339 -0.550000 15.99940
6340 OM 6340 OM OM1 6340 -0.550000 15.99940
6341 OM 6341 OM OM1 6341 -0.550000 15.99940
6342 OM 6342 OM OM1 6342 -0.550000 15.99940
6343 OM 6343 OM OM1 6343 -0.550000 15.99940
6344 OM 6344 OM OM1 6344 -0.550000 15.99940
6345 OM 6345 OM OM1 6345 -0.550000 15.99940
6346 OM 6346 OM OM1 6346 -0.550000 15.99940
6347 OM 6347 OM OM1 6347 -0.550000 15.99940
6348 OM 6348 OM OM1 6348 -0.550000 15.99940
6349 OM 6349 OM OM1 6349 -0.550000 15.99940
6350 OM 6350 OM OM1 6350 -0.550000 15.99940
6351 OM 6351 OM OM1 6351 -0.550000 15.99940
6352 OM 6352 OM OM1 6352 -0.550000 15.99940
6353 OM 6353 OM OM1 6353 -0.550000 15.99940
6354 OM 6354 OM OM1 6354 -0.550000 15.99940
6355 OM 6355 OM OM1 6355 -0.550000 15.99940
6356 OM 6356 OM OM1 6356 -0.550000 15.99940
6357 OM 6357 OM OM1 6357 -0.550000 15.99940
6358 OM 6358 OM OM1 6358 -0.550000 15.99940
6359 OM 6359 OM OM1 6359 -0.550000 15.99940
6360 OM 6360 OM OM1 6360 -0.550000 15.99940
6361 OM 6361 OM OM1 6361 -0.550000 15.99940
6362 OM 6362 OM OM1 6362 -0.550000 15.99940
6363 OM 6363 OM OM1 6363 -0.550000 15.99940
6364 OM 6364 OM OM1 6364 -0.550000 15.99940
6365 OM 6365 OM OM1 6365 -0.550000 15.99940
6366 OM 6366 OM OM1 6366 -0.550000 15.99940
6367 OM 6367 OM OM1 6367 -0.550000 15.99940
6368 OM 6368 OM OM1 6368 -0.550000 15.99940
6369 OM 6369 OM OM1 6369 -0.550000 15.99940
6370 OM 6370 OM OM1 6370 -0.550000 15.99940
6371 OM 6371 OM OM1 6371 -0.550000 15.99940
6372 OM 6372 OM OM1 6372 -0.550000 15.99940
6373 OM 6373 OM OM1 6373 -0.550000 15.99940
6374 OM 6374 OM OM1 6374 -0.550000 15.99940
6375 OM 6375 OM OM1 6375 -0.550000 15.99940
6376 OM 6376 OM OM1 6376 -0.550000 15.99940
6377 OM 6377 OM OM1 6377 -0.550000 15.99940
6378 OM 6378 OM OM1 6378 -0.550000 15.99940
6379 OM 6379 OM OM1 6379 -0.550000 15.99940
6380 OM 6380 OM OM1 6380 -0.550000 15.99940
6381 OM 6381 OM OM1 6381 -0.550000 15.99940
6382 OM 6382 OM OM1 6382 -0.550000 15.99940
6383 OM 6383 OM OM1 6383 -0.550000 15.99940
6384 OM 6384 OM OM1 6384 -0.550000 15.99940
6385 OM 6385 OM OM1 6385 -0.550000 15.99940
6386 OM 6386 OM OM1 6386 -0.550000 15.99940
6387 OM 6387 OM OM1 6387 -0.550000 15.99940
6388 OM 6388 OM OM1 6388 -0.550000 15.99940
6389 OM 6389 OM OM1 6389 -0.550000 15.99940
6390 OM 6390 OM OM1 6390 -0.550000 15.99940
6391 OM 6391 OM OM1 6391 -0.550000 15.99940
6392 OM 6392 OM OM1 6392 -0.550000 15.99940
6393 OM 6393 OM OM1 6393 -0.550000 15.99940
6394 OM 6394 OM OM1 6394 -0.550000 15.99940
6395 OM 6395 OM OM1 6395 -0.550000 15.99940
6396 OM 6396 OM OM1 6396 -0.550000 15.99940
6397 OM 6397 OM OM1 6397 -0.550000 15.99940
6398 OM 6398 OM OM1 6398 -0.550000 15.99940
6399 OM 6399 OM OM1 6399 -0.550000 15.99940
6400 OM 6400 OM OM1 6400 -0.550000 15.99940
6401 OM 6401 OM OM1 6401 -0.550000 15.99940
6402 OM 6402 OM OM1 6402 -0.550000 15.99940
6403 OM 6403 OM OM1 6403 -0.550000 15.99940
6404 OM 6404 OM OM1 6404 -0.550000 15.99940
6405 OM 6405 OM OM1 6405 -0.550000 15.99940
6406 OM 6406 OM OM1 6406 -0.550000 15.99940
6407 OM 6407 OM OM1 6407 -0.550000 15.99940
6408 OM 6408 OM OM1 6408 -0.550000 15.99940
6409 OM 6409 OM OM1 6409 -0.550000 15.99940
6410 OM 6410 OM OM1 6410 -0.550000 15.99940
6411 OM 6411 OM OM1 6411 -0.550000 15.99940
6412 OM 6412 OM OM1 6412 -0.550000 15.99940
6413 OM 6413 OM OM1 6413 -0.550000 15.99940
6414 OM 6414 OM OM1 6414 -0.550000 15.99940
6415 OM 6415 OM OM1 6415 -0.550000 15.99940
6416 OM 6416 OM OM1 6416 -0.550000 15.99940
6417 OM 6417 OM OM1 6417 -0.550000 15.99940
6418 OM 6418 OM OM1 6418 -0.550000 15.99940
6419 OM 6419 OM OM1 6419 -0.550000 15.99940
6420 OM 6420 OM OM1 6420 -0.550000 15.99940
6421 OM 6421 OM OM1 6421 -0.550000 15.99940
6422 OM 6422 OM OM1 6422 -0.550000 15.99940
6423 OM 6423 OM OM1 6423 -0.550000 15.99940
6424 OM 6424 OM OM1 6424 -0.550000 15.99940
6425 OM 6425 OM OM1 6425 -0.550000 15.99940
6426 OM 6426 OM OM1 6426 -0.550000 15.99940
6427 OM 6427 OM OM1 6427 -0.550000 15.99940
6428 OM 6428 OM OM1 6428 -0.550000 15.99940
6429 OM 6429 OM OM1 6429 -0.550000 15.99940
6430 OM 6430 OM OM1 6430 -0.550000 15.99940
6431 OM 6431 OM OM1 6431 -0.550000 15.99940
6432 OM 6432 OM OM1 6432 -0.550000 15.99940
6433 OM 6433 OM OM1 6433 -0.550000 15.99940
6434 OM 6434 OM OM1 6434 -0.550000 15.99940
6435 OM 6435 OM OM1 6435 -0.550000 15.99940
6436 OM 6436 OM OM1 6436 -0.550000 15.99940
6437 OM 6437 OM OM1 6437 -0.550000 15.99940
6438 OM 6438 OM OM1 6438 -0.550000 15.99940
6439 OM 6439 OM OM1 6439 -0.550000 15.99940
6440 OM 6440 OM OM1 6440 -0.550000 15.99940
6441 OM 6441 OM OM1 6441 -0.550000 15.99940
6442 OM 6442 OM OM1 6442 -0.550000 15.99940
6443 OM 6443 OM OM1 6443 -0.550000 15.99940
6444 OM 6444 OM OM1 6444 -0.550000 15.99940
6445 OM 6445 OM OM1 6445 -0.550000 15.99940
6446 OM 6446 OM OM1 6446 -0.550000 15.99940
6447 OM 6447 OM OM1 6447 -0.550000 15.99940
6448 OM 6448 OM OM1 6448 -0.550000 15.99940
6449 OM 6449 OM OM1 6449 -0.550000 15.99940
6450 OM 6450 OM OM1 6450 -0.550000 15.99940
6451 OM 6451 OM OM1 6451 -0.550000 15.99940
6452 OM 6452 OM OM1 6452 -0.550000 15.99940
6453 OM 6453 OM OM1 6453 -0.550000 15.99940
6454 OM 6454 OM OM1 6454 -0.550000 15.99940
6455 OM 6455 OM OM1 6455 -0.550000 15.99940
6456 OM 6456 OM OM1 6456 -0.550000 15.99940
6457 OM 6457 OM OM1 6457 -0.550000 15.99940
6458 OM 6458 OM OM1 6458 -0.550000 15.99940
6459 OM 6459 OM OM1 6459 -0.550000 15.99940
6460 OM 6460 OM OM1 6460 -0.550000 15.99940
6461 OM 6461 OM OM1 6461 -0.550000 15.99940
6462 OM 6462 OM OM1 6462 -0.550000 15.99940
6463 OM 6463 OM OM1 6463 -0.550000 15.99940
6464 OM 6464 OM OM1 6464 -0.550000 15.99940
6465 OM 6465 OM OM1 6465 -0.550000 15.99940
6466 OM 6466 OM OM1 6466 -0.550000 15.99940
6467 OM 6467 OM OM1 6467 -0.550000 15.99940
6468 OM 6468 OM OM1 6468 -0.550000 15.99940
6469 OM 6469 OM OM1 6469 -0.550000 15.99940
6470 OM 6470 OM OM1 6470 -0.550000 15.99940
6471 OM 6471 OM OM1 6471 -0.550000 15.99940
6472 OM 6472 OM OM1 6472 -0.550000 15.99940
6473 OM 6473 OM OM1 6473 -0.550000 15.99940
6474 OM 6474 OM OM1 6474 -0.550000 15.99940
6475 OM 6475 OM OM1 6475 -0.550000 15.99940
6476 OM 6476 OM OM1 6476 -0.550000 15.99940
6477 OM 6477 OM OM1 6477 -0.550000 15.99940
6478 OM 6478 OM OM1 6478 -0.550000 15.99940
6479 OM 6479 OM OM1 6479 -0.550000 15.99940
6480 OM 6480 OM OM1 6480 -0.550000 15.99940
6481 OM 6481 OM OM1 6481 -0.550000 15.99940
6482 OM 6482 OM OM1 6482 -0.550000 15.99940
6483 OM 6483 OM OM1 6483 -0.550000 15.99940
6484 OM 6484 OM OM1 6484 -0.550000 15.99940
6485 OM 6485 OM OM1 6485 -0.550000 15.99940
6486 OM 6486 OM OM1 6486 -0.550000 15.99940
6487 OM 6487 OM OM1 6487 -0.550000 15.99940
6488 OM 6488 OM OM1 6488 -0.550000 15.99940
6489 OM 6489 OM OM1 6489 -0.550000 15.99940
6490 OM 6490 OM OM1 6490 -0.550000 15.99940
6491 OM 6491 OM OM1 6491 -0.550000 15.99940
6492 OM 6492 OM OM1 6492 -0.550000 15.99940
6493 OM 6493 OM OM1 6493 -0.550000 15.99940
6494 OM 6494 OM OM1 6494 -0.550000 15.99940
6495 OM 6495 OM OM1 6495 -0.550000 15.99940
6496 OM 6496 OM OM1 6496 -0.550000 15.99940
6497 OM 6497 OM OM1 6497 -0.550000 15.99940
6498 OM 6498 OM OM1 6498 -0.550000 15.99940
6499 OM 6499 OM OM1 6499 -0.550000 15.99940
6500 OM 6500 OM OM1 6500 -0.550000 15.99940
6501 OM 6501 OM OM1 6501 -0.550000 15.99940
6502 OM 6502 OM OM1 6502 -0.550000 15.99940
6503 OM 6503 OM OM1 6503 -0.550000 15.99940
6504 OM 6504 OM OM1 6504 -0.550000 15.99940
6505 OM 6505 OM OM1 6505 -0.550000 15.99940
6506 OM 6506 OM OM1 6506 -0.550000 15.99940
6507 OM 6507 OM OM1 6507 -0.550000 15.99940
6508 OM 6508 OM OM1 6508 -0.550000 15.99940
6509 OM 6509 OM OM1 6509 -0.550000 15.99940
6510 OM 6510 OM OM1 6510 -0.550000 15.99940
6511 OM 6511 OM OM1 6511 -0.550000 15.99940
6512 OM 6512 OM OM1 6512 -0.550000 15.99940
6513 OM 6513 OM OM1 6513 -0.550000 15.99940
6514 OM 6514 OM OM1 6514 -0.550000 15.99940
6515 OM 6515 OM OM1 6515 -0.550000 15.99940
6516 OM 6516 OM OM1 6516 -0.550000 15.99940
6517 OM 6517 OM OM1 6517 -0.550000 15.99940
6518 OM 6518 OM OM1 6518 -0.550000 15.99940
6519 OM 6519 OM OM1 6519 -0.550000 15.99940
6520 OM 6520 OM OM1 6520 -0.550000 15.99940
6521 OM 6521 OM OM1 6521 -0.550000 15.99940
6522 OM 6522 OM OM1 6522 -0.550000 15.99940
6523 OM 6523 OM OM1 6523 -0.550000 15.99940
6524 OM 6524 OM OM1 6524 -0.550000 15.99940
6525 OM 6525 OM OM1 6525 -0.550000 15.99940
6526 OM 6526 OM OM1 6526 -0.550000 15.99940
6527 OM 6527 OM OM1 6527 -0.550000 15.99940
6528 OM 6528 OM OM1 6528 -0.550000 15.99940
6529 OM 6529 OM OM1 6529 -0.550000 15.99940
6530 OM 6530 OM OM1 6530 -0.550000 15.99940
6531 OM 6531 OM OM1 6531 -0.550000 15.99940
6532 OM 6532 OM OM1 6532 -0.550000 15.99940
6533 OM 6533 OM OM1 6533 -0.550000 15.99940
6534 OM 6534 OM OM1 6534 -0.550000 15.99940
6535 OM 6535 OM OM1 6535 -0.550000 15.99940
6536 OM 6536 OM OM1 6536 -0.550000 15.99940
6537 OM 6537 OM OM1 6537 -0.550000 15.99940
6538 OM 6538 OM OM1 6538 -0.550000 15.99940
6539 OM 6539 OM OM1 6539 -0.550000 15.99940
6540 OM 6540 OM OM1 6540 -0.550000 15.99940
6541 OM 6541 OM OM1 6541 -0.550000 15.99940
6542 OM 6542 OM OM1 6542 -0.550000 15.99940
6543 OM 6543 OM OM1 6543 -0.550000 15.99940
6544 OM 6544 OM OM1 6544 -0.550000 15.99940
6545 OM 6545 OM OM1 6545 -0.550000 15.99940
6546 OM 6546 OM OM1 6546 -0.550000 15.99940
6547 OM 6547 OM OM1 6547 -0.550000 15.99940
6548 OM 6548 OM OM1 6548 -0.550000 15.99940
6549 OM 6549 OM OM1 6549 -0.550000 15.99940
6550 OM 6550 OM OM1 6550 -0.550000 15.99940
6551 OM 6551 OM OM1 6551 -0.550000 15.99940
6552 OM 6552 OM OM1 6552 -0.550000 15.99940
6553 OM 6553 OM OM1 6553 -0.550000 15.99940
6554 OM 6554 OM OM1 6554 -0.550000 15.99940
6555 OM 6555 OM OM1 6555 -0.550000 15.99940
6556 OM 6556 OM OM1 6556 -0.550000 15.99940
6557 OM 6557 OM OM1 6557 -0.550000 15.99940
6558 OM 6558 OM OM1 6558 -0.550000 15.99940
6559 OM 6559 OM OM1 6559 -0.550000 15.99940
6560 OM 6560 OM OM1 6560 -0.550000 15.99940
6561 OM 6561 OM OM1 6561 -0.550000 15.99940
6562 OM 6562 OM OM1 6562 -0.550000 15.99940
6563 OM 6563 OM OM1 6563 -0.550000 15.99940
6564 OM 6564 OM OM1 6564 -0.550000 15.99940
6565 OM 6565 OM OM1 6565 -0.550000 15.99940
6566 OM 6566 OM OM1 6566 -0.550000 15.99940
6567 OM 6567 OM OM1 6567 -0.550000 15.99940
6568 OM 6568 OM OM1 6568 -0.550000 15.99940
6569 OM 6569 OM OM1 6569 -0.550000 15.99940
6570 OM 6570 OM OM1 6570 -0.550000 15.99940
6571 OM 6571 OM OM1 6571 -0.550000 15.99940
6572 OM 6572 OM OM1 6572 -0.550000 15.99940
6573 OM 6573 OM OM1 6573 -0.550000 15.99940
6574 OM 6574 OM OM1 6574 -0.550000 15.99940
6575 OM 6575 OM OM1 6575 -0.550000 15.99940
6576 OM 6576 OM OM1 6576 -0.550000 15.99940
6577 OM 6577 OM OM1 6577 -0.550000 15.99940
6578 OM 6578 OM OM1 6578 -0.550000 15.99940
6579 OM 6579 OM OM1 6579 -0.550000 15.99940
6580 OM 6580 OM OM1 6580 -0.550000 15.99940
6581 OM 6581 OM OM1 6581 -0.550000 15.99940
6582 OM 6582 OM OM1 6582 -0.550000 15.99940
6583 OM 6583 OM OM1 6583 -0.550000 15.99940
6584 OM 6584 OM OM1 6584 -0.550000 15.99940
6585 OM 6585 OM OM1 6585 -0.550000 15.99940
6586 OM 6586 OM OM1 6586 -0.550000 15.99940
6587 OM 6587 OM OM1 6587 -0.550000 15.99940
6588 OM 6588 OM OM1 6588 -0.550000 15.99940
6589 OM 6589 OM OM1 6589 -0.550000 15.99940
6590 OM 6590 OM OM1 6590 -0.550000 15.99940
6591 OM 6591 OM OM1 6591 -0.550000 15.99940
6592 OM 6592 OM OM1 6592 -0.550000 15.99940
6593 OM 6593 OM OM1 6593 -0.550000 15.99940
6594 OM 6594 OM OM1 6594 -0.550000 15.99940
6595 OM 6595 OM OM1 6595 -0.550000 15.99940
6596 OM 6596 OM OM1 6596 -0.550000 15.99940
6597 OM 6597 OM OM1 6597 -0.550000 15.99940
6598 OM 6598 OM OM1 6598 -0.550000 15.99940
6599 OM 6599 OM OM1 6599 -0.550000 15.99940
6600 OM 6600 OM OM1 6600 -0.550000 15.99940
6601 OM 6601 OM OM1 6601 -0.550000 15.99940
6602 OM 6602 OM OM1 6602 -0.550000 15.99940
6603 OM 6603 OM OM1 6603 -0.550000 15.99940
6604 OM 6604 OM OM1 6604 -0.550000 15.99940
6605 OM 6605 OM OM1 6605 -0.550000 15.99940
6606 OM 6606 OM OM1 6606 -0.550000 15.99940
6607 OM 6607 OM OM1 6607 -0.550000 15.99940
6608 OM 6608 OM OM1 6608 -0.550000 15.99940
6609 OM 6609 OM OM1 6609 -0.550000 15.99940
6610 OM 6610 OM OM1 6610 -0.550000 15.99940
6611 OM 6611 OM OM1 6611 -0.550000 15.99940
6612 OM 6612 OM OM1 6612 -0.550000 15.99940
6613 OM 6613 OM OM1 6613 -0.550000 15.99940
6614 OM 6614 OM OM1 6614 -0.550000 15.99940
6615 OM 6615 OM OM1 6615 -0.550000 15.99940
6616 OM 6616 OM OM1 6616 -0.550000 15.99940
6617 OM 6617 OM OM1 6617 -0.550000 15.99940
6618 OM 6618 OM OM1 6618 -0.550000 15.99940
6619 OM 6619 OM OM1 6619 -0.550000 15.99940
6620 OM 6620 OM OM1 6620 -0.550000 15.99940
6621 OM 6621 OM OM1 6621 -0.550000 15.99940
6622 OM 6622 OM OM1 6622 -0.550000 15.99940
6623 OM 6623 OM OM1 6623 -0.550000 15.99940
6624 OM 6624 OM OM1 6624 -0.550000 15.99940
6625 OM 6625 OM OM1 6625 -0.550000 15.99940
6626 OM 6626 OM OM1 6626 -0.550000 15.99940
6627 OM 6627 OM OM1 6627 -0.550000 15.99940
6628 OM 6628 OM OM1 6628 -0.550000 15.99940
6629 OM 6629 OM OM1 6629 -0.550000 15.99940
6630 OM 6630 OM OM1 6630 -0.550000 15.99940
6631 OM 6631 OM OM1 6631 -0.550000 15.99940
6632 OM 6632 OM OM1 6632 -0.550000 15.99940
6633 OM 6633 OM OM1 6633 -0.550000 15.99940
6634 OM 6634 OM OM1 6634 -0.550000 15.99940
6635 OM 6635 OM OM1 6635 -0.550000 15.99940
6636 OM 6636 OM OM1 6636 -0.550000 15.99940
6637 OM 6637 OM OM1 6637 -0.550000 15.99940
6638 OM 6638 OM OM1 6638 -0.550000 15.99940
6639 OM 6639 OM OM1 6639 -0.550000 15.99940
6640 OM 6640 OM OM1 6640 -0.550000 15.99940
6641 OM 6641 OM OM1 6641 -0.550000 15.99940
6642 OM 6642 OM OM1 6642 -0.550000 15.99940
6643 OM 6643 OM OM1 6643 -0.550000 15.99940
6644 OM 6644 OM OM1 6644 -0.550000 15.99940
6645 OM 6645 OM OM1 6645 -0.550000 15.99940
6646 OM 6646 OM OM1 6646 -0.550000 15.99940
6647 OM 6647 OM OM1 6647 -0.550000 15.99940
6648 OM 6648 OM OM1 6648 -0.550000 15.99940
6649 OM 6649 OM OM1 6649 -0.550000 15.99940
6650 OM 6650 OM OM1 6650 -0.550000 15.99940
6651 OM 6651 OM OM1 6651 -0.550000 15.99940
6652 OM 6652 OM OM1 6652 -0.550000 15.99940
6653 OM 6653 OM OM1 6653 -0.550000 15.99940
6654 OM 6654 OM OM1 6654 -0.550000 15.99940
6655 OM 6655 OM OM1 6655 -0.550000 15.99940
6656 OM 6656 OM OM1 6656 -0.550000 15.99940
6657 OM 6657 OM OM1 6657 -0.550000 15.99940
6658 OM 6658 OM OM1 6658 -0.550000 15.99940
6659 OM 6659 OM OM1 6659 -0.550000 15.99940
6660 OM 6660 OM OM1 6660 -0.550000 15.99940
6661 OM 6661 OM OM1 6661 -0.550000 15.99940
6662 OM 6662 OM OM1 6662 -0.550000 15.99940
6663 OM 6663 OM OM1 6663 -0.550000 15.99940
6664 OM 6664 OM OM1 6664 -0.550000 15.99940
6665 OM 6665 OM OM1 6665 -0.550000 15.99940
6666 OM 6666 OM OM1 6666 -0.550000 15.99940
6667 OM 6667 OM OM1 6667 -0.550000 15.99940
6668 OM 6668 OM OM1 6668 -0.550000 15.99940
6669 OM 6669 OM OM1 6669 -0.550000 15.99940
6670 OM 6670 OM OM1 6670 -0.550000 15.99940
6671 OM 6671 OM OM1 6671 -0.550000 15.99940
6672 OM 6672 OM OM1 6672 -0.550000 15.99940
6673 OM 6673 OM OM1 6673 -0.550000 15.99940
6674 OM 6674 OM OM1 6674 -0.550000 15.99940
6675 OM 6675 OM OM1 6675 -0.550000 15.99940
6676 OM 6676 OM OM1 6676 -0.550000 15.99940
6677 OM 6677 OM OM1 6677 -0.550000 15.99940
6678 OM 6678 OM OM1 6678 -0.550000 15.99940
6679 OM 6679 OM OM1 6679 -0.550000 15.99940
6680 OM 6680 OM OM1 6680 -0.550000 15.99940
6681 OM 6681 OM OM1 6681 -0.550000 15.99940
6682 OM 6682 OM OM1 6682 -0.550000 15.99940
6683 OM 6683 OM OM1 6683 -0.550000 15.99940
6684 OM 6684 OM OM1 6684 -0.550000 15.99940
6685 OM 6685 OM OM1 6685 -0.550000 15.99940
6686 OM 6686 OM OM1 6686 -0.550000 15.99940
6687 OM 6687 OM OM1 6687 -0.550000 15.99940
6688 OM 6688 OM OM1 6688 -0.550000 15.99940
6689 OM 6689 OM OM1 6689 -0.550000 15.99940
6690 OM 6690 OM OM1 6690 -0.550000 15.99940
6691 OM 6691 OM OM1 6691 -0.550000 15.99940
6692 OM 6692 OM OM1 6692 -0.550000 15.99940
6693 OM 6693 OM OM1 6693 -0.550000 15.99940
6694 OM 6694 OM OM1 6694 -0.550000 15.99940
6695 OM 6695 OM OM1 6695 -0.550000 15.99940
6696 OM 6696 OM OM1 6696 -0.550000 15.99940
6697 OM 6697 OM OM1 6697 -0.550000 15.99940
6698 OM 6698 OM OM1 6698 -0.550000 15.99940
6699 OM 6699 OM OM1 6699 -0.550000 15.99940
6700 OM 6700 OM OM1 6700 -0.550000 15.99940
6701 OM 6701 OM OM1 6701 -0.550000 15.99940
6702 OM 6702 OM OM1 6702 -0.550000 15.99940
6703 OM 6703 OM OM1 6703 -0.550000 15.99940
6704 OM 6704 OM OM1 6704 -0.550000 15.99940
6705 OM 6705 OM OM1 6705 -0.550000 15.99940
6706 OM 6706 OM OM1 6706 -0.550000 15.99940
6707 OM 6707 OM OM1 6707 -0.550000 15.99940
6708 OM 6708 OM OM1 6708 -0.550000 15.99940
6709 OM 6709 OM OM1 6709 -0.550000 15.99940
6710 OM 6710 OM OM1 6710 -0.550000 15.99940
6711 OM 6711 OM OM1 6711 -0.550000 15.99940
6712 OM 6712 OM OM1 6712 -0.550000 15.99940
6713 OM 6713 OM OM1 6713 -0.550000 15.99940
6714 OM 6714 OM OM1 6714 -0.550000 15.99940
6715 OM 6715 OM OM1 6715 -0.550000 15.99940
6716 OM 6716 OM OM1 6716 -0.550000 15.99940
6717 OM 6717 OM OM1 6717 -0.550000 15.99940
6718 OM 6718 OM OM1 6718 -0.550000 15.99940
6719 OM 6719 OM OM1 6719 -0.550000 15.99940
6720 OM 6720 OM OM1 6720 -0.550000 15.99940
6721 OM 6721 OM OM1 6721 -0.550000 15.99940
6722 OM 6722 OM OM1 6722 -0.550000 15.99940
6723 OM 6723 OM OM1 6723 -0.550000 15.99940
6724 OM 6724 OM OM1 6724 -0.550000 15.99940
6725 OM 6725 OM OM1 6725 -0.550000 15.99940
6726 OM 6726 OM OM1 6726 -0.550000 15.99940
6727 OM 6727 OM OM1 6727 -0.550000 15.99940
6728 OM 6728 OM OM1 6728 -0.550000 15.99940
6729 OM 6729 OM OM1 6729 -0.550000 15.99940
6730 OM 6730 OM OM1 6730 -0.550000 15.99940
6731 OM 6731 OM OM1 6731 -0.550000 15.99940
6732 OM 6732 OM OM1 6732 -0.550000 15.99940
6733 OM 6733 OM OM1 6733 -0.550000 15.99940
6734 OM 6734 OM OM1 6734 -0.550000 15.99940
6735 OM 6735 OM OM1 6735 -0.550000 15.99940
6736 OM 6736 OM OM1 6736 -0.550000 15.99940
6737 OM 6737 OM OM1 6737 -0.550000 15.99940
6738 OM 6738 OM OM1 6738 -0.550000 15.99940
6739 OM 6739 OM OM1 6739 -0.550000 15.99940
6740 OM 6740 OM OM1 6740 -0.550000 15.99940
6741 OM 6741 OM OM1 6741 -0.550000 15.99940
6742 OM 6742 OM OM1 6742 -0.550000 15.99940
6743 OM 6743 OM OM1 6743 -0.550000 15.99940
6744 OM 6744 OM OM1 6744 -0.550000 15.99940
6745 OM 6745 OM OM1 6745 -0.550000 15.99940
6746 OM 6746 OM OM1 6746 -0.550000 15.99940
6747 OM 6747 OM OM1 6747 -0.550000 15.99940
6748 OM 6748 OM OM1 6748 -0.550000 15.99940
6749 OM 6749 OM OM1 6749 -0.550000 15.99940
6750 OM 6750 OM OM1 6750 -0.550000 15.99940
6751 OM 6751 OM OM1 6751 -0.550000 15.99940
6752 OM 6752 OM OM1 6752 -0.550000 15.99940
6753 OM 6753 OM OM1 6753 -0.550000 15.99940
6754 OM 6754 OM OM1 6754 -0.550000 15.99940
6755 OM 6755 OM OM1 6755 -0.550000 15.99940
6756 OM 6756 OM OM1 6756 -0.550000 15.99940
6757 OM 6757 OM OM1 6757 -0.550000 15.99940
6758 OM 6758 OM OM1 6758 -0.550000 15.99940
6759 OM 6759 OM OM1 6759 -0.550000 15.99940
6760 OM 6760 OM OM1 6760 -0.550000 15.99940
6761 OM 6761 OM OM1 6761 -0.550000 15.99940
6762 OM 6762 OM OM1 6762 -0.550000 15.99940
6763 OM 6763 OM OM1 6763 -0.550000 15.99940
6764 OM 6764 OM OM1 6764 -0.550000 15.99940
6765 OM 6765 OM OM1 6765 -0.550000 15.99940
6766 OM 6766 OM OM1 6766 -0.550000 15.99940
6767 OM 6767 OM OM1 6767 -0.550000 15.99940
6768 OM 6768 OM OM1 6768 -0.550000 15.99940
6769 OM 6769 OM OM1 6769 -0.550000 15.99940
6770 OM 6770 OM OM1 6770 -0.550000 15.99940
6771 OM 6771 OM OM1 6771 -0.550000 15.99940
6772 OM 6772 OM OM1 6772 -0.550000 15.99940
6773 OM 6773 OM OM1 6773 -0.550000 15.99940
6774 OM 6774 OM OM1 6774 -0.550000 15.99940
6775 OM 6775 OM OM1 6775 -0.550000 15.99940
6776 OM 6776 OM OM1 6776 -0.550000 15.99940
6777 OM 6777 OM OM1 6777 -0.550000 15.99940
6778 OM 6778 OM OM1 6778 -0.550000 15.99940
6779 OM 6779 OM OM1 6779 -0.550000 15.99940
6780 OM 6780 OM OM1 6780 -0.550000 15.99940
6781 OM 6781 OM OM1 6781 -0.550000 15.99940
6782 OM 6782 OM OM1 6782 -0.550000 15.99940
6783 OM 6783 OM OM1 6783 -0.550000 15.99940
6784 OM 6784 OM OM1 6784 -0.550000 15.99940
6785 OM 6785 OM OM1 6785 -0.550000 15.99940
6786 OM 6786 OM OM1 6786 -0.550000 15.99940
6787 OM 6787 OM OM1 6787 -0.550000 15.99940
6788 OM 6788 OM OM1 6788 -0.550000 15.99940
6789 OM 6789 OM OM1 6789 -0.550000 15.99940
6790 OM 6790 OM OM1 6790 -0.550000 15.99940
6791 OM 6791 OM OM1 6791 -0.550000 15.99940
6792 OM 6792 OM OM1 6792 -0.550000 15.99940
6793 OM 6793 OM OM1 6793 -0.550000 15.99940
6794 OM 6794 OM OM1 6794 -0.550000 15.99940
6795 OM 6795 OM OM1 6795 -0.550000 15.99940
6796 OM 6796 OM OM1 6796 -0.550000 15.99940
6797 OM 6797 OM OM1 6797 -0.550000 15.99940
6798 OM 6798 OM OM1 6798 -0.550000 15.99940
6799 OM 6799 OM OM1 6799 -0.550000 15.99940
6800 OM 6800 OM OM1 6800 -0.550000 15.99940
6801 OM 6801 OM OM1 6801 -0.550000 15.99940
6802 OM 6802 OM OM1 6802 -0.550000 15.99940
6803 OM 6803 OM OM1 6803 -0.550000 15.99940
6804 OM 6804 OM OM1 6804 -0.550000 15.99940
6805 OM 6805 OM OM1 6805 -0.550000 15.99940
6806 OM 6806 OM OM1 6806 -0.550000 15.99940
6807 OM 6807 OM OM1 6807 -0.550000 15.99940
6808 OM 6808 OM OM1 6808 -0.550000 15.99940
6809 OM 6809 OM OM1 6809 -0.550000 15.99940
6810 OM 6810 OM OM1 6810 -0.550000 15.99940
6811 OM 6811 OM OM1 6811 -0.550000 15.99940
6812 OM 6812 OM OM1 6812 -0.550000 15.99940
6813 OM 6813 OM OM1 6813 -0.550000 15.99940
6814 OM 6814 OM OM1 6814 -0.550000 15.99940
6815 OM 6815 OM OM1 6815 -0.550000 15.99940
6816 OM 6816 OM OM1 6816 -0.550000 15.99940
6817 OM 6817 OM OM1 6817 -0.550000 15.99940
6818 OM 6818 OM OM1 6818 -0.550000 15.99940
6819 OM 6819 OM OM1 6819 -0.550000 15.99940
6820 OM 6820 OM OM1 6820 -0.550000 15.99940
6821 OM 6821 OM OM1 6821 -0.550000 15.99940
6822 OM 6822 OM OM1 6822 -0.550000 15.99940
6823 OM 6823 OM OM1 6823 -0.550000 15.99940
6824 OM 6824 OM OM1 6824 -0.550000 15.99940
6825 OM 6825 OM OM1 6825 -0.550000 15.99940
6826 OM 6826 OM OM1 6826 -0.550000 15.99940
6827 OM 6827 OM OM1 6827 -0.550000 15.99940
6828 OM 6828 OM OM1 6828 -0.550000 15.99940
6829 OM 6829 OM OM1 6829 -0.550000 15.99940
6830 OM 6830 OM OM1 6830 -0.550000 15.99940
6831 OM 6831 OM OM1 6831 -0.550000 15.99940
6832 OM 6832 OM OM1 6832 -0.550000 15.99940
6833 OM 6833 OM OM1 6833 -0.550000 15.99940
6834 OM 6834 OM OM1 6834 -0.550000 15.99940
6835 OM 6835 OM OM1 6835 -0.550000 15.99940
6836 OM 6836 OM OM1 6836 -0.550000 15.99940
6837 OM 6837 OM OM1 6837 -0.550000 15.99940
6838 OM 6838 OM OM1 6838 -0.550000 15.99940
6839 OM 6839 OM OM1 6839 -0.550000 15.99940
6840 OM 6840 OM OM1 6840 -0.550000 15.99940
6841 OM 6841 OM OM1 6841 -0.550000 15.99940
6842 OM 6842 OM OM1 6842 -0.550000 15.99940
6843 OM 6843 OM OM1 6843 -0.550000 15.99940
6844 OM 6844 OM OM1 6844 -0.550000 15.99940
6845 OM 6845 OM OM1 6845 -0.550000 15.99940
6846 OM 6846 OM OM1 6846 -0.550000 15.99940
6847 OM 6847 OM OM1 6847 -0.550000 15.99940
6848 OM 6848 OM OM1 6848 -0.550000 15.99940
6849 OM 6849 OM OM1 6849 -0.550000 15.99940
6850 OM 6850 OM OM1 6850 -0.550000 15.99940
6851 OM 6851 OM OM1 6851 -0.550000 15.99940
6852 OM 6852 OM OM1 6852 -0.550000 15.99940
6853 OM 6853 OM OM1 6853 -0.550000 15.99940
6854 OM 6854 OM OM1 6854 -0.550000 15.99940
6855 OM 6855 OM OM1 6855 -0.550000 15.99940
6856 OM 6856 OM OM1 6856 -0.550000 15.99940
6857 OM 6857 OM OM1 6857 -0.550000 15.99940
6858 OM 6858 OM OM1 6858 -0.550000 15.99940
6859 OM 6859 OM OM1 6859 -0.550000 15.99940
6860 OM 6860 OM OM1 6860 -0.550000 15.99940
6861 OM 6861 OM OM1 6861 -0.550000 15.99940
6862 OM 6862 OM OM1 6862 -0.550000 15.99940
6863 OM 6863 OM OM1 6863 -0.550000 15.99940
6864 OM 6864 OM OM1 6864 -0.550000 15.99940
6865 OM 6865 OM OM1 6865 -0.550000 15.99940
6866 OM 6866 OM OM1 6866 -0.550000 15.99940
6867 OM 6867 OM OM1 6867 -0.550000 15.99940
6868 OM 6868 OM OM1 6868 -0.550000 15.99940
6869 OM 6869 OM OM1 6869 -0.550000 15.99940
6870 OM 6870 OM OM1 6870 -0.550000 15.99940
6871 OM 6871 OM OM1 6871 -0.550000 15.99940
6872 OM 6872 OM OM1 6872 -0.550000 15.99940
6873 OM 6873 OM OM1 6873 -0.550000 15.99940
6874 OM 6874 OM OM1 6874 -0.550000 15.99940
6875 OM 6875 OM OM1 6875 -0.550000 15.99940
6876 OM 6876 OM OM1 6876 -0.550000 15.99940
6877 OM 6877 OM OM1 6877 -0.550000 15.99940
6878 OM 6878 OM OM1 6878 -0.550000 15.99940
6879 OM 6879 OM OM1 6879 -0.550000 15.99940
6880 OM 6880 OM OM1 6880 -0.550000 15.99940
6881 OM 6881 OM OM1 6881 -0.550000 15.99940
6882 OM 6882 OM OM1 6882 -0.550000 15.99940
6883 OM 6883 OM OM1 6883 -0.550000 15.99940
6884 OM 6884 OM OM1 6884 -0.550000 15.99940
6885 OM 6885 OM OM1 6885 -0.550000 15.99940
6886 OM 6886 OM OM1 6886 -0.550000 15.99940
6887 OM 6887 OM OM1 6887 -0.550000 15.99940
6888 OM 6888 OM OM1 6888 -0.550000 15.99940
6889 OM 6889 OM OM1 6889 -0.550000 15.99940
6890 OM 6890 OM OM1 6890 -0.550000 15.99940
6891 OM 6891 OM OM1 6891 -0.550000 15.99940
6892 OM 6892 OM OM1 6892 -0.550000 15.99940
6893 OM 6893 OM OM1 6893 -0.550000 15.99940
6894 OM 6894 OM OM1 6894 -0.550000 15.99940
6895 OM 6895 OM OM1 6895 -0.550000 15.99940
6896 OM 6896 OM OM1 6896 -0.550000 15.99940
6897 OM 6897 OM OM1 6897 -0.550000 15.99940
6898 OM 6898 OM OM1 6898 -0.550000 15.99940
6899 OM 6899 OM OM1 6899 -0.550000 15.99940
6900 OM 6900 OM OM1 6900 -0.550000 15.99940
6901 OM 6901 OM OM1 6901 -0.550000 15.99940
6902 OM 6902 OM OM1 6902 -0.550000 15.99940
6903 OM 6903 OM OM1 6903 -0.550000 15.99940
6904 OM 6904 OM OM1 6904 -0.550000 15.99940
6905 OM 6905 OM OM1 6905 -0.550000 15.99940
6906 OM 6906 OM OM1 6906 -0.550000 15.99940
6907 OM 6907 OM OM1 6907 -0.550000 15.99940
6908 OM 6908 OM OM1 6908 -0.550000 15.99940
6909 OM 6909 OM OM1 6909 -0.550000 15.99940
6910 OM 6910 OM OM1 6910 -0.550000 15.99940
6911 OM 6911 OM OM1 6911 -0.550000 15.99940
6912 OM 6912 OM OM1 6912 -0.550000 15.99940
6913 OM 6913 OM OM1 6913 -0.550000 15.99940
6914 OM 6914 OM OM1 6914 -0.550000 15.99940
6915 OM 6915 OM OM1 6915 -0.550000 15.99940
6916 OM 6916 OM OM1 6916 -0.550000 15.99940
6917 OM 6917 OM OM1 6917 -0.550000 15.99940
6918 OM 6918 OM OM1 6918 -0.550000 15.99940
6919 OM 6919 OM OM1 6919 -0.550000 15.99940
6920 OM 6920 OM OM1 6920 -0.550000 15.99940
6921 OM 6921 OM OM1 6921 -0.550000 15.99940
6922 OM 6922 OM OM1 6922 -0.550000 15.99940
6923 OM 6923 OM OM1 6923 -0.550000 15.99940
6924 OM 6924 OM OM1 6924 -0.550000 15.99940
6925 OM 6925 OM OM1 6925 -0.550000 15.99940
6926 OM 6926 OM OM1 6926 -0.550000 15.99940
6927 OM 6927 OM OM1 6927 -0.550000 15.99940
6928 OM 6928 OM OM1 6928 -0.550000 15.99940
6929 OM 6929 OM OM1 6929 -0.550000 15.99940
6930 OM 6930 OM OM1 6930 -0.550000 15.99940
6931 OM 6931 OM OM1 6931 -0.550000 15.99940
6932 OM 6932 OM OM1 6932 -0.550000 15.99940
6933 OM 6933 OM OM1 6933 -0.550000 15.99940
6934 OM 6934 OM OM1 6934 -0.550000 15.99940
6935 OM 6935 OM OM1 6935 -0.550000 15.99940
6936 OM 6936 OM OM1 6936 -0.550000 15.99940
6937 OM 6937 OM OM1 6937 -0.550000 15.99940
6938 OM 6938 OM OM1 6938 -0.550000 15.99940
6939 OM 6939 OM OM1 6939 -0.550000 15.99940
6940 OM 6940 OM OM1 6940 -0.550000 15.99940
6941 OM 6941 OM OM1 6941 -0.550000 15.99940
6942 OM 6942 OM OM1 6942 -0.550000 15.99940
6943 OM 6943 OM OM1 6943 -0.550000 15.99940
6944 OM 6944 OM OM1 6944 -0.550000 15.99940
6945 OM 6945 OM OM1 6945 -0.550000 15.99940
6946 OM 6946 OM OM1 6946 -0.550000 15.99940
6947 OM 6947 OM OM1 6947 -0.550000 15.99940
6948 OM 6948 OM OM1 6948 -0.550000 15.99940
6949 OM 6949 OM OM1 6949 -0.550000 15.99940
6950 OM 6950 OM OM1 6950 -0.550000 15.99940
6951 OM 6951 OM OM1 6951 -0.550000 15.99940
6952 OM 6952 OM OM1 6952 -0.550000 15.99940
6953 OM 6953 OM OM1 6953 -0.550000 15.99940
6954 OM 6954 OM OM1 6954 -0.550000 15.99940
6955 OM 6955 OM OM1 6955 -0.550000 15.99940
6956 OM 6956 OM OM1 6956 -0.550000 15.99940
6957 OM 6957 OM OM1 6957 -0.550000 15.99940
6958 OM 6958 OM OM1 6958 -0.550000 15.99940
6959 OM 6959 OM OM1 6959 -0.550000 15.99940
6960 OM 6960 OM OM1 6960 -0.550000 15.99940
6961 OM 6961 OM OM1 6961 -0.550000 15.99940
6962 OM 6962 OM OM1 6962 -0.550000 15.99940
6963 OM 6963 OM OM1 6963 -0.550000 15.99940
6964 OM 6964 OM OM1 6964 -0.550000 15.99940
6965 OM 6965 OM OM1 6965 -0.550000 15.99940
6966 OM 6966 OM OM1 6966 -0.550000 15.99940
6967 OM 6967 OM OM1 6967 -0.550000 15.99940
6968 OM 6968 OM OM1 6968 -0.550000 15.99940
6969 OM 6969 OM OM1 6969 -0.550000 15.99940
6970 OM 6970 OM OM1 6970 -0.550000 15.99940
6971 OM 6971 OM OM1 6971 -0.550000 15.99940
6972 OM 6972 OM OM1 6972 -0.550000 15.99940
6973 OM 6973 OM OM1 6973 -0.550000 15.99940
6974 OM 6974 OM OM1 6974 -0.550000 15.99940
6975 OM 6975 OM OM1 6975 -0.550000 15.99940
6976 OM 6976 OM OM1 6976 -0.550000 15.99940
6977 OM 6977 OM OM1 6977 -0.550000 15.99940
6978 OM 6978 OM OM1 6978 -0.550000 15.99940
6979 OM 6979 OM OM1 6979 -0.550000 15.99940
6980 OM 6980 OM OM1 6980 -0.550000 15.99940
6981 OM 6981 OM OM1 6981 -0.550000 15.99940
6982 OM 6982 OM OM1 6982 -0.550000 15.99940
6983 OM 6983 OM OM1 6983 -0.550000 15.99940
6984 OM 6984 OM OM1 6984 -0.550000 15.99940
6985 OM 6985 OM OM1 6985 -0.550000 15.99940
6986 OM 6986 OM OM1 6986 -0.550000 15.99940
6987 OM 6987 OM OM1 6987 -0.550000 15.99940
6988 OM 6988 OM OM1 6988 -0.550000 15.99940
6989 OM 6989 OM OM1 6989 -0.550000 15.99940
6990 OM 6990 OM OM1 6990 -0.550000 15.99940
6991 OM 6991 OM OM1 6991 -0.550000 15.99940
6992 OM 6992 OM OM1 6992 -0.550000 15.99940
6993 OM 6993 OM OM1 6993 -0.550000 15.99940
6994 OM 6994 OM OM1 6994 -0.550000 15.99940
6995 OM 6995 OM OM1 6995 -0.550000 15.99940
6996 OM 6996 OM OM1 6996 -0.550000 15.99940
6997 OM 6997 OM OM1 6997 -0.550000 15.99940
6998 OM 6998 OM OM1 6998 -0.550000 15.99940
6999 OM 6999 OM OM1 6999 -0.550000 15.99940
7000 OM 7000 OM OM1 7000 -0.550000 15.99940
7001 OM 7001 OM OM1 7001 -0.550000 15.99940
7002 OM 7002 OM OM1 7002 -0.550000 15.99940
7003 OM 7003 OM OM1 7003 -0.550000 15.99940
7004 OM 7004 OM OM1 7004 -0.550000 15.99940
7005 OM 7005 OM OM1 7005 -0.550000 15.99940
7006 OM 7006 OM OM1 7006 -0.550000 15.99940
7007 OM 7007 OM OM1 7007 -0.550000 15.99940
7008 OM 7008 OM OM1 7008 -0.550000 15.99940
7009 OM 7009 OM OM1 7009 -0.550000 15.99940
7010 OM 7010 OM OM1 7010 -0.550000 15.99940
7011 OM 7011 OM OM1 7011 -0.550000 15.99940
7012 OM 7012 OM OM1 7012 -0.550000 15.99940
7013 OM 7013 OM OM1 7013 -0.550000 15.99940
7014 OM 7014 OM OM1 7014 -0.550000 15.99940
7015 OM 7015 OM OM1 7015 -0.550000 15.99940
7016 OM 7016 OM OM1 7016 -0.550000 15.99940
7017 OM 7017 OM OM1 7017 -0.550000 15.99940
7018 OM 7018 OM OM1 7018 -0.550000 15.99940
7019 OM 7019 OM OM1 7019 -0.550000 15.99940
7020 OM 7020 OM OM1 7020 -0.550000 15.99940
7021 OM 7021 OM OM1 7021 -0.550000 15.99940
7022 OM 7022 OM OM1 7022 -0.550000 15.99940
7023 OM 7023 OM OM1 7023 -0.550000 15.99940
7024 OM 7024 OM OM1 7024 -0.550000 15.99940
7025 OM 7025 OM OM1 7025 -0.550000 15.99940
7026 OM 7026 OM OM1 7026 -0.550000 15.99940
7027 OM 7027 OM OM1 7027 -0.550000 15.99940
7028 OM 7028 OM OM1 7028 -0.550000 15.99940
7029 OM 7029 OM OM1 7029 -0.550000 15.99940
7030 OM 7030 OM OM1 7030 -0.550000 15.99940
7031 OM 7031 OM OM1 7031 -0.550000 15.99940
7032 OM 7032 OM OM1 7032 -0.550000 15.99940
7033 OM 7033 OM OM1 7033 -0.550000 15.99940
7034 OM 7034 OM OM1 7034 -0.550000 15.99940
7035 OM 7035 OM OM1 7035 -0.550000 15.99940
7036 OM 7036 OM OM1 7036 -0.550000 15.99940
7037 OM 7037 OM OM1 7037 -0.550000 15.99940
7038 OM 7038 OM OM1 7038 -0.550000 15.99940
7039 OM 7039 OM OM1 7039 -0.550000 15.99940
7040 OM 7040 OM OM1 7040 -0.550000 15.99940
7041 OM 7041 OM OM1 7041 -0.550000 15.99940
7042 OM 7042 OM OM1 7042 -0.550000 15.99940
7043 OM 7043 OM OM1 7043 -0.550000 15.99940
7044 OM 7044 OM OM1 7044 -0.550000 15.99940
7045 OM 7045 OM OM1 7045 -0.550000 15.99940
7046 OM 7046 OM OM1 7046 -0.550000 15.99940
7047 OM 7047 OM OM1 7047 -0.550000 15.99940
7048 OM 7048 OM OM1 7048 -0.550000 15.99940
7049 OM 7049 OM OM1 7049 -0.550000 15.99940
7050 OM 7050 OM OM1 7050 -0.550000 15.99940
7051 OM 7051 OM OM1 7051 -0.550000 15.99940
7052 OM 7052 OM OM1 7052 -0.550000 15.99940
7053 OM 7053 OM OM1 7053 -0.550000 15.99940
7054 OM 7054 OM OM1 7054 -0.550000 15.99940
7055 OM 7055 OM OM1 7055 -0.550000 15.99940
7056 OM 7056 OM OM1 7056 -0.550000 15.99940
7057 OM 7057 OM OM1 7057 -0.550000 15.99940
7058 OM 7058 OM OM1 7058 -0.550000 15.99940
7059 OM 7059 OM OM1 7059 -0.550000 15.99940
7060 OM 7060 OM OM1 7060 -0.550000 15.99940
7061 OM 7061 OM OM1 7061 -0.550000 15.99940
7062 OM 7062 OM OM1 7062 -0.550000 15.99940
7063 OM 7063 OM OM1 7063 -0.550000 15.99940
7064 OM 7064 OM OM1 7064 -0.550000 15.99940
7065 OM 7065 OM OM1 7065 -0.550000 15.99940
7066 OM 7066 OM OM1 7066 -0.550000 15.99940
7067 OM 7067 OM OM1 7067 -0.550000 15.99940
7068 OM 7068 OM OM1 7068 -0.550000 15.99940
7069 OM 7069 OM OM1 7069 -0.550000 15.99940
7070 OM 7070 OM OM1 7070 -0.550000 15.99940
7071 OM 7071 OM OM1 7071 -0.550000 15.99940
7072 OM 7072 OM OM1 7072 -0.550000 15.99940
7073 OM 7073 OM OM1 7073 -0.550000 15.99940
7074 OM 7074 OM OM1 7074 -0.550000 15.99940
7075 OM 7075 OM OM1 7075 -0.550000 15.99940
7076 OM 7076 OM OM1 7076 -0.550000 15.99940
7077 OM 7077 OM OM1 7077 -0.550000 15.99940
7078 OM 7078 OM OM1 7078 -0.550000 15.99940
7079 OM 7079 OM OM1 7079 -0.550000 15.99940
7080 OM 7080 OM OM1 7080 -0.550000 15.99940
7081 OM 7081 OM OM1 7081 -0.550000 15.99940
7082 OM 7082 OM OM1 7082 -0.550000 15.99940
7083 OM 7083 OM OM1 7083 -0.550000 15.99940
7084 OM 7084 OM OM1 7084 -0.550000 15.99940
7085 OM 7085 OM OM1 7085 -0.550000 15.99940
7086 OM 7086 OM OM1 7086 -0.550000 15.99940
7087 OM 7087 OM OM1 7087 -0.550000 15.99940
7088 OM 7088 OM OM1 7088 -0.550000 15.99940
7089 OM 7089 OM OM1 7089 -0.550000 15.99940
7090 OM 7090 OM OM1 7090 -0.550000 15.99940
7091 OM 7091 OM OM1 7091 -0.550000 15.99940
7092 OM 7092 OM OM1 7092 -0.550000 15.99940
7093 OM 7093 OM OM1 7093 -0.550000 15.99940
7094 OM 7094 OM OM1 7094 -0.550000 15.99940
7095 OM 7095 OM OM1 7095 -0.550000 15.99940
7096 OM 7096 OM OM1 7096 -0.550000 15.99940
7097 OM 7097 OM OM1 7097 -0.550000 15.99940
7098 OM 7098 OM OM1 7098 -0.550000 15.99940
7099 OM 7099 OM OM1 7099 -0.550000 15.99940
7100 OM 7100 OM OM1 7100 -0.550000 15.99940
7101 OM 7101 OM OM1 7101 -0.550000 15.99940
7102 OM 7102 OM OM1 7102 -0.550000 15.99940
7103 OM 7103 OM OM1 7103 -0.550000 15.99940
7104 OM 7104 OM OM1 7104 -0.550000 15.99940
7105 OM 7105 OM OM1 7105 -0.550000 15.99940
7106 OM 7106 OM OM1 7106 -0.550000 15.99940
7107 OM 7107 OM OM1 7107 -0.550000 15.99940
7108 OM 7108 OM OM1 7108 -0.550000 15.99940
7109 OM 7109 OM OM1 7109 -0.550000 15.99940
7110 OM 7110 OM OM1 7110 -0.550000 15.99940
7111 OM 7111 OM OM1 7111 -0.550000 15.99940
7112 OM 7112 OM OM1 7112 -0.550000 15.99940
7113 OM 7113 OM OM1 7113 -0.550000 15.99940
7114 OM 7114 OM OM1 7114 -0.550000 15.99940
7115 OM 7115 OM OM1 7115 -0.550000 15.99940
7116 OM 7116 OM OM1 7116 -0.550000 15.99940
7117 OM 7117 OM OM1 7117 -0.550000 15.99940
7118 OM 7118 OM OM1 7118 -0.550000 15.99940
7119 OM 7119 OM OM1 7119 -0.550000 15.99940
7120 OM 7120 OM OM1 7120 -0.550000 15.99940
7121 OM 7121 OM OM1 7121 -0.550000 15.99940
7122 OM 7122 OM OM1 7122 -0.550000 15.99940
7123 OM 7123 OM OM1 7123 -0.550000 15.99940
7124 OM 7124 OM OM1 7124 -0.550000 15.99940
7125 OM 7125 OM OM1 7125 -0.550000 15.99940
7126 OM 7126 OM OM1 7126 -0.550000 15.99940
7127 OM 7127 OM OM1 7127 -0.550000 15.99940
7128 OM 7128 OM OM1 7128 -0.550000 15.99940
7129 OM 7129 OM OM1 7129 -0.550000 15.99940
7130 OM 7130 OM OM1 7130 -0.550000 15.99940
7131 OM 7131 OM OM1 7131 -0.550000 15.99940
7132 OM 7132 OM OM1 7132 -0.550000 15.99940
7133 OM 7133 OM OM1 7133 -0.550000 15.99940
7134 OM 7134 OM OM1 7134 -0.550000 15.99940
7135 OM 7135 OM OM1 7135 -0.550000 15.99940
7136 OM 7136 OM OM1 7136 -0.550000 15.99940
7137 OM 7137 OM OM1 7137 -0.550000 15.99940
7138 OM 7138 OM OM1 7138 -0.550000 15.99940
7139 OM 7139 OM OM1 7139 -0.550000 15.99940
7140 OM 7140 OM OM1 7140 -0.550000 15.99940
7141 OM 7141 OM OM1 7141 -0.550000 15.99940
7142 OM 7142 OM OM1 7142 -0.550000 15.99940
7143 OM 7143 OM OM1 7143 -0.550000 15.99940
7144 OM 7144 OM OM1 7144 -0.550000 15.99940
7145 OM 7145 OM OM1 7145 -0.550000 15.99940
7146 OM 7146 OM OM1 7146 -0.550000 15.99940
7147 OM 7147 OM OM1 7147 -0.550000 15.99940
7148 OM 7148 OM OM1 7148 -0.550000 15.99940
7149 OM 7149 OM OM1 7149 -0.550000 15.99940
7150 OM 7150 OM OM1 7150 -0.550000 15.99940
7151 OM 7151 OM OM1 7151 -0.550000 15.99940
7152 OM 7152 OM OM1 7152 -0.550000 15.99940
7153 OM 7153 OM OM1 7153 -0.550000 15.99940
7154 OM 7154 OM OM1 7154 -0.550000 15.99940
7155 OM 7155 OM OM1 7155 -0.550000 15.99940
7156 OM 7156 OM OM1 7156 -0.550000 15.99940
7157 OM 7157 OM OM1 7157 -0.550000 15.99940
7158 OM 7158 OM OM1 7158 -0.550000 15.99940
7159 OM 7159 OM OM1 7159 -0.550000 15.99940
7160 OM 7160 OM OM1 7160 -0.550000 15.99940
7161 OM 7161 OM OM1 7161 -0.550000 15.99940
7162 OM 7162 OM OM1 7162 -0.550000 15.99940
7163 OM 7163 OM OM1 7163 -0.550000 15.99940
7164 OM 7164 OM OM1 7164 -0.550000 15.99940
7165 OM 7165 OM OM1 7165 -0.550000 15.99940
7166 OM 7166 OM OM1 7166 -0.550000 15.99940
7167 OM 7167 OM OM1 7167 -0.550000 15.99940
7168 OM 7168 OM OM1 7168 -0.550000 15.99940
7169 OM 7169 OM OM1 7169 -0.550000 15.99940
7170 OM 7170 OM OM1 7170 -0.550000 15.99940
7171 OM 7171 OM OM1 7171 -0.550000 15.99940
7172 OM 7172 OM OM1 7172 -0.550000 15.99940
7173 OM 7173 OM OM1 7173 -0.550000 15.99940
7174 OM 7174 OM OM1 7174 -0.550000 15.99940
7175 OM 7175 OM OM1 7175 -0.550000 15.99940
7176 OM 7176 OM OM1 7176 -0.550000 15.99940
7177 OM 7177 OM OM1 7177 -0.550000 15.99940
7178 OM 7178 OM OM1 7178 -0.550000 15.99940
7179 OM 7179 OM OM1 7179 -0.550000 15.99940
7180 OM 7180 OM OM1 7180 -0.550000 15.99940
7181 OM 7181 OM OM1 7181 -0.550000 15.99940
7182 OM 7182 OM OM1 7182 -0.550000 15.99940
7183 OM 7183 OM OM1 7183 -0.550000 15.99940
7184 OM 7184 OM OM1 7184 -0.550000 15.99940
7185 OM 7185 OM OM1 7185 -0.550000 15.99940
7186 OM 7186 OM OM1 7186 -0.550000 15.99940
7187 OM 7187 OM OM1 7187 -0.550000 15.99940
7188 OM 7188 OM OM1 7188 -0.550000 15.99940
7189 OM 7189 OM OM1 7189 -0.550000 15.99940
7190 OM 7190 OM OM1 7190 -0.550000 15.99940
7191 OM 7191 OM OM1 7191 -0.550000 15.99940
7192 OM 7192 OM OM1 7192 -0.550000 15.99940
7193 OM 7193 OM OM1 7193 -0.550000 15.99940
7194 OM 7194 OM OM1 7194 -0.550000 15.99940
7195 OM 7195 OM OM1 7195 -0.550000 15.99940
7196 OM 7196 OM OM1 7196 -0.550000 15.99940
7197 OM 7197 OM OM1 7197 -0.550000 15.99940
7198 OM 7198 OM OM1 7198 -0.550000 15.99940
7199 OM 7199 OM OM1 7199 -0.550000 15.99940
7200 OM 7200 OM OM1 7200 -0.550000 15.99940
7201 OM 7201 OM OM1 7201 -0.550000 15.99940
7202 OM 7202 OM OM1 7202 -0.550000 15.99940
7203 OM 7203 OM OM1 7203 -0.550000 15.99940
7204 OM 7204 OM OM1 7204 -0.550000 15.99940
7205 OM 7205 OM OM1 7205 -0.550000 15.99940
7206 OM 7206 OM OM1 7206 -0.550000 15.99940
7207 OM 7207 OM OM1 7207 -0.550000 15.99940
7208 OM 7208 OM OM1 7208 -0.550000 15.99940
7209 OM 7209 OM OM1 7209 -0.550000 15.99940
7210 OM 7210 OM OM1 7210 -0.550000 15.99940
7211 OM 7211 OM OM1 7211 -0.550000 15.99940
7212 OM 7212 OM OM1 7212 -0.550000 15.99940
7213 OM 7213 OM OM1 7213 -0.550000 15.99940
7214 OM 7214 OM OM1 7214 -0.550000 15.99940
7215 OM 7215 OM OM1 7215 -0.550000 15.99940
7216 OM 7216 OM OM1 7216 -0.550000 15.99940
7217 OM 7217 OM OM1 7217 -0.550000 15.99940
7218 OM 7218 OM OM1 7218 -0.550000 15.99940
7219 OM 7219 OM OM1 7219 -0.550000 15.99940
7220 OM 7220 OM OM1 7220 -0.550000 15.99940
7221 OM 7221 OM OM1 7221 -0.550000 15.99940
7222 OM 7222 OM OM1 7222 -0.550000 15.99940
7223 OM 7223 OM OM1 7223 -0.550000 15.99940
7224 OM 7224 OM OM1 7224 -0.550000 15.99940
7225 OM 7225 OM OM1 7225 -0.550000 15.99940
7226 OM 7226 OM OM1 7226 -0.550000 15.99940
7227 OM 7227 OM OM1 7227 -0.550000 15.99940
7228 OM 7228 OM OM1 7228 -0.550000 15.99940
7229 OM 7229 OM OM1 7229 -0.550000 15.99940
7230 OM 7230 OM OM1 7230 -0.550000 15.99940
7231 OM 7231 OM OM1 7231 -0.550000 15.99940
7232 OM 7232 OM OM1 7232 -0.550000 15.99940
7233 OM 7233 OM OM1 7233 -0.550000 15.99940
7234 OM 7234 OM OM1 7234 -0.550000 15.99940
7235 OM 7235 OM OM1 7235 -0.550000 15.99940
7236 OM 7236 OM OM1 7236 -0.550000 15.99940
7237 OM 7237 OM OM1 7237 -0.550000 15.99940
7238 OM 7238 OM OM1 7238 -0.550000 15.99940
7239 OM 7239 OM OM1 7239 -0.550000 15.99940
7240 OM 7240 OM OM1 7240 -0.550000 15.99940
7241 OM 7241 OM OM1 7241 -0.550000 15.99940
7242 OM 7242 OM OM1 7242 -0.550000 15.99940
7243 OM 7243 OM OM1 7243 -0.550000 15.99940
7244 OM 7244 OM OM1 7244 -0.550000 15.99940
7245 OM 7245 OM OM1 7245 -0.550000 15.99940
7246 OM 7246 OM OM1 7246 -0.550000 15.99940
7247 OM 7247 OM OM1 7247 -0.550000 15.99940
7248 OM 7248 OM OM1 7248 -0.550000 15.99940
7249 OM 7249 OM OM1 7249 -0.550000 15.99940
7250 OM 7250 OM OM1 7250 -0.550000 15.99940
7251 OM 7251 OM OM1 7251 -0.550000 15.99940
7252 OM 7252 OM OM1 7252 -0.550000 15.99940
7253 OM 7253 OM OM1 7253 -0.550000 15.99940
7254 OM 7254 OM OM1 7254 -0.550000 15.99940
7255 OM 7255 OM OM1 7255 -0.550000 15.99940
7256 OM 7256 OM OM1 7256 -0.550000 15.99940
7257 OM 7257 OM OM1 7257 -0.550000 15.99940
7258 OM 7258 OM OM1 7258 -0.550000 15.99940
7259 OM 7259 OM OM1 7259 -0.550000 15.99940
7260 OM 7260 OM OM1 7260 -0.550000 15.99940
7261 OM 7261 OM OM1 7261 -0.550000 15.99940
7262 OM 7262 OM OM1 7262 -0.550000 15.99940
7263 OM 7263 OM OM1 7263 -0.550000 15.99940
7264 OM 7264 OM OM1 7264 -0.550000 15.99940
7265 OM 7265 OM OM1 7265 -0.550000 15.99940
7266 OM 7266 OM OM1 7266 -0.550000 15.99940
7267 OM 7267 OM OM1 7267 -0.550000 15.99940
7268 OM 7268 OM OM1 7268 -0.550000 15.99940
7269 OM 7269 OM OM1 7269 -0.550000 15.99940
7270 OM 7270 OM OM1 7270 -0.550000 15.99940
7271 OM 7271 OM OM1 7271 -0.550000 15.99940
7272 OM 7272 OM OM1 7272 -0.550000 15.99940
7273 OM 7273 OM OM1 7273 -0.550000 15.99940
7274 OM 7274 OM OM1 7274 -0.550000 15.99940
7275 OM 7275 OM OM1 7275 -0.550000 15.99940
7276 OM 7276 OM OM1 7276 -0.550000 15.99940
7277 OM 7277 OM OM1 7277 -0.550000 15.99940
7278 OM 7278 OM OM1 7278 -0.550000 15.99940
7279 OM 7279 OM OM1 7279 -0.550000 15.99940
7280 OM 7280 OM OM1 7280 -0.550000 15.99940
7281 OM 7281 OM OM1 7281 -0.550000 15.99940
7282 OM 7282 OM OM1 7282 -0.550000 15.99940
7283 OM 7283 OM OM1 7283 -0.550000 15.99940
7284 OM 7284 OM OM1 7284 -0.550000 15.99940
7285 OM 7285 OM OM1 7285 -0.550000 15.99940
7286 OM 7286 OM OM1 7286 -0.550000 15.99940
7287 OM 7287 OM OM1 7287 -0.550000 15.99940
7288 OM 7288 OM OM1 7288 -0.550000 15.99940
7289 OM 7289 OM OM1 7289 -0.550000 15.99940
7290 OM 7290 OM OM1 7290 -0.550000 15.99940
7291 OM 7291 OM OM1 7291 -0.550000 15.99940
7292 OM 7292 OM OM1 7292 -0.550000 15.99940
7293 OM 7293 OM OM1 7293 -0.550000 15.99940
7294 OM 7294 OM OM1 7294 -0.550000 15.99940
7295 OM 7295 OM OM1 7295 -0.550000 15.99940
7296 OM 7296 OM OM1 7296 -0.550000 15.99940
7297 OM 7297 OM OM1 7297 -0.550000 15.99940
7298 OM 7298 OM OM1 7298 -0.550000 15.99940
7299 OM 7299 OM OM1 7299 -0.550000 15.99940
7300 OM 7300 OM OM1 7300 -0.550000 15.99940
7301 OM 7301 OM OM1 7301 -0.550000 15.99940
7302 OM 7302 OM OM1 7302 -0.550000 15.99940
7303 OM 7303 OM OM1 7303 -0.550000 15.99940
7304 OM 7304 OM OM1 7304 -0.550000 15.99940
7305 OM 7305 OM OM1 7305 -0.550000 15.99940
7306 OM 7306 OM OM1 7306 -0.550000 15.99940
7307 OM 7307 OM OM1 7307 -0.550000 15.99940
7308 OM 7308 OM OM1 7308 -0.550000 15.99940
7309 OM 7309 OM OM1 7309 -0.550000 15.99940
7310 OM 7310 OM OM1 7310 -0.550000 15.99940
7311 OM 7311 OM OM1 7311 -0.550000 15.99940
7312 OM 7312 OM OM1 7312 -0.550000 15.99940
7313 OM 7313 OM OM1 7313 -0.550000 15.99940
7314 OM 7314 OM OM1 7314 -0.550000 15.99940
7315 OM 7315 OM OM1 7315 -0.550000 15.99940
7316 OM 7316 OM OM1 7316 -0.550000 15.99940
7317 OM 7317 OM OM1 7317 -0.550000 15.99940
7318 OM 7318 OM OM1 7318 -0.550000 15.99940
7319 OM 7319 OM OM1 7319 -0.550000 15.99940
7320 OM 7320 OM OM1 7320 -0.550000 15.99940
7321 OM 7321 OM OM1 7321 -0.550000 15.99940
7322 OM 7322 OM OM1 7322 -0.550000 15.99940
7323 OM 7323 OM OM1 7323 -0.550000 15.99940
7324 OM 7324 OM OM1 7324 -0.550000 15.99940
7325 OM 7325 OM OM1 7325 -0.550000 15.99940
7326 OM 7326 OM OM1 7326 -0.550000 15.99940
7327 OM 7327 OM OM1 7327 -0.550000 15.99940
7328 OM 7328 OM OM1 7328 -0.550000 15.99940
7329 OM 7329 OM OM1 7329 -0.550000 15.99940
7330 OM 7330 OM OM1 7330 -0.550000 15.99940
7331 OM 7331 OM OM1 7331 -0.550000 15.99940
7332 OM 7332 OM OM1 7332 -0.550000 15.99940
7333 OM 7333 OM OM1 7333 -0.550000 15.99940
7334 OM 7334 OM OM1 7334 -0.550000 15.99940
7335 OM 7335 OM OM1 7335 -0.550000 15.99940
7336 OM 7336 OM OM1 7336 -0.550000 15.99940
7337 OM 7337 OM OM1 7337 -0.550000 15.99940
7338 OM 7338 OM OM1 7338 -0.550000 15.99940
7339 OM 7339 OM OM1 7339 -0.550000 15.99940
7340 OM 7340 OM OM1 7340 -0.550000 15.99940
7341 OM 7341 OM OM1 7341 -0.550000 15.99940
7342 OM 7342 OM OM1 7342 -0.550000 15.99940
7343 OM 7343 OM OM1 7343 -0.550000 15.99940
7344 OM 7344 OM OM1 7344 -0.550000 15.99940
7345 OM 7345 OM OM1 7345 -0.550000 15.99940
7346 OM 7346 OM OM1 7346 -0.550000 15.99940
7347 OM 7347 OM OM1 7347 -0.550000 15.99940
7348 OM 7348 OM OM1 7348 -0.550000 15.99940
7349 OM 7349 OM OM1 7349 -0.550000 15.99940
7350 OM 7350 OM OM1 7350 -0.550000 15.99940
7351 OM 7351 OM OM1 7351 -0.550000 15.99940
7352 OM 7352 OM OM1 7352 -0.550000 15.99940
7353 OM 7353 OM OM1 7353 -0.550000 15.99940
7354 OM 7354 OM OM1 7354 -0.550000 15.99940
7355 OM 7355 OM OM1 7355 -0.550000 15.99940
7356 OM 7356 OM OM1 7356 -0.550000 15.99940
7357 OM 7357 OM OM1 7357 -0.550000 15.99940
7358 OM 7358 OM OM1 7358 -0.550000 15.99940
7359 OM 7359 OM OM1 7359 -0.550000 15.99940
7360 OM 7360 OM OM1 7360 -0.550000 15.99940
7361 OM 7361 OM OM1 7361 -0.550000 15.99940
7362 OM 7362 OM OM1 7362 -0.550000 15.99940
7363 OM 7363 OM OM1 7363 -0.550000 15.99940
7364 OM 7364 OM OM1 7364 -0.550000 15.99940
7365 OM 7365 OM OM1 7365 -0.550000 15.99940
7366 OM 7366 OM OM1 7366 -0.550000 15.99940
7367 OM 7367 OM OM1 7367 -0.550000 15.99940
7368 OM 7368 OM OM1 7368 -0.550000 15.99940
7369 OM 7369 OM OM1 7369 -0.550000 15.99940
7370 OM 7370 OM OM1 7370 -0.550000 15.99940
7371 OM 7371 OM OM1 7371 -0.550000 15.99940
7372 OM 7372 OM OM1 7372 -0.550000 15.99940
7373 OM 7373 OM OM1 7373 -0.550000 15.99940
7374 OM 7374 OM OM1 7374 -0.550000 15.99940
7375 OM 7375 OM OM1 7375 -0.550000 15.99940
7376 OM 7376 OM OM1 7376 -0.550000 15.99940
7377 OM 7377 OM OM1 7377 -0.550000 15.99940
7378 OM 7378 OM OM1 7378 -0.550000 15.99940
7379 OM 7379 OM OM1 7379 -0.550000 15.99940
7380 OM 7380 OM OM1 7380 -0.550000 15.99940
7381 OM 7381 OM OM1 7381 -0.550000 15.99940
7382 OM 7382 OM OM1 7382 -0.550000 15.99940
7383 OM 7383 OM OM1 7383 -0.550000 15.99940
7384 OM 7384 OM OM1 7384 -0.550000 15.99940
7385 OM 7385 OM OM1 7385 -0.550000 15.99940
7386 OM 7386 OM OM1 7386 -0.550000 15.99940
7387 OM 7387 OM OM1 7387 -0.550000 15.99940
7388 OM 7388 OM OM1 7388 -0.550000 15.99940
7389 OM 7389 OM OM1 7389 -0.550000 15.99940
7390 OM 7390 OM OM1 7390 -0.550000 15.99940
7391 OM 7391 OM OM1 7391 -0.550000 15.99940
7392 OM 7392 OM OM1 7392 -0.550000 15.99940
7393 OM 7393 OM OM1 7393 -0.550000 15.99940
7394 OM 7394 OM OM1 7394 -0.550000 15.99940
7395 OM 7395 OM OM1 7395 -0.550000 15.99940
7396 OM 7396 OM OM1 7396 -0.550000 15.99940
7397 OM 7397 OM OM1 7397 -0.550000 15.99940
7398 OM 7398 OM OM1 7398 -0.550000 15.99940
7399 OM 7399 OM OM1 7399 -0.550000 15.99940
7400 OM 7400 OM OM1 7400 -0.550000 15.99940
7401 OM 7401 OM OM1 7401 -0.550000 15.99940
7402 OM 7402 OM OM1 7402 -0.550000 15.99940
7403 OM 7403 OM OM1 7403 -0.550000 15.99940
7404 OM 7404 OM OM1 7404 -0.550000 15.99940
7405 OM 7405 OM OM1 7405 -0.550000 15.99940
7406 OM 7406 OM OM1 7406 -0.550000 15.99940
7407 OM 7407 OM OM1 7407 -0.550000 15.99940
7408 OM 7408 OM OM1 7408 -0.550000 15.99940
7409 OM 7409 OM OM1 7409 -0.550000 15.99940
7410 OM 7410 OM OM1 7410 -0.550000 15.99940
7411 OM 7411 OM OM1 7411 -0.550000 15.99940
7412 OM 7412 OM OM1 7412 -0.550000 15.99940
7413 OM 7413 OM OM1 7413 -0.550000 15.99940
7414 OM 7414 OM OM1 7414 -0.550000 15.99940
7415 OM 7415 OM OM1 7415 -0.550000 15.99940
7416 OM 7416 OM OM1 7416 -0.550000 15.99940
7417 OM 7417 OM OM1 7417 -0.550000 15.99940
7418 OM 7418 OM OM1 7418 -0.550000 15.99940
7419 OM 7419 OM OM1 7419 -0.550000 15.99940
7420 OM 7420 OM OM1 7420 -0.550000 15.99940
7421 OM 7421 OM OM1 7421 -0.550000 15.99940
7422 OM 7422 OM OM1 7422 -0.550000 15.99940
7423 OM 7423 OM OM1 7423 -0.550000 15.99940
7424 OM 7424 OM OM1 7424 -0.550000 15.99940
7425 OM 7425 OM OM1 7425 -0.550000 15.99940
7426 OM 7426 OM OM1 7426 -0.550000 15.99940
7427 OM 7427 OM OM1 7427 -0.550000 15.99940
7428 OM 7428 OM OM1 7428 -0.550000 15.99940
7429 OM 7429 OM OM1 7429 -0.550000 15.99940
7430 OM 7430 OM OM1 7430 -0.550000 15.99940
7431 OM 7431 OM OM1 7431 -0.550000 15.99940
7432 OM 7432 OM OM1 7432 -0.550000 15.99940
7433 OM 7433 OM OM1 7433 -0.550000 15.99940
7434 OM 7434 OM OM1 7434 -0.550000 15.99940
7435 OM 7435 OM OM1 7435 -0.550000 15.99940
7436 OM 7436 OM OM1 7436 -0.550000 15.99940
7437 OM 7437 OM OM1 7437 -0.550000 15.99940
7438 OM 7438 OM OM1 7438 -0.550000 15.99940
7439 OM 7439 OM OM1 7439 -0.550000 15.99940
7440 OM 7440 OM OM1 7440 -0.550000 15.99940
7441 OM 7441 OM OM1 7441 -0.550000 15.99940
7442 OM 7442 OM OM1 7442 -0.550000 15.99940
7443 OM 7443 OM OM1 7443 -0.550000 15.99940
7444 OM 7444 OM OM1 7444 -0.550000 15.99940
7445 OM 7445 OM OM1 7445 -0.550000 15.99940
7446 OM 7446 OM OM1 7446 -0.550000 15.99940
7447 OM 7447 OM OM1 7447 -0.550000 15.99940
7448 OM 7448 OM OM1 7448 -0.550000 15.99940
7449 OM 7449 OM OM1 7449 -0.550000 15.99940
7450 OM 7450 OM OM1 7450 -0.550000 15.99940
7451 OM 7451 OM OM1 7451 -0.550000 15.99940
7452 OM 7452 OM OM1 7452 -0.550000 15.99940
7453 OM 7453 OM OM1 7453 -0.550000 15.99940
7454 OM 7454 OM OM1 7454 -0.550000 15.99940
7455 OM 7455 OM OM1 7455 -0.550000 15.99940
7456 OM 7456 OM OM1 7456 -0.550000 15.99940
7457 OM 7457 OM OM1 7457 -0.550000 15.99940
7458 OM 7458 OM OM1 7458 -0.550000 15.99940
7459 OM 7459 OM OM1 7459 -0.550000 15.99940
7460 OM 7460 OM OM1 7460 -0.550000 15.99940
7461 OM 7461 OM OM1 7461 -0.550000 15.99940
7462 OM 7462 OM OM1 7462 -0.550000 15.99940
7463 OM 7463 OM OM1 7463 -0.550000 15.99940
7464 OM 7464 OM OM1 7464 -0.550000 15.99940
7465 OM 7465 OM OM1 7465 -0.550000 15.99940
7466 OM 7466 OM OM1 7466 -0.550000 15.99940
7467 OM 7467 OM OM1 7467 -0.550000 15.99940
7468 OM 7468 OM OM1 7468 -0.550000 15.99940
7469 OM 7469 OM OM1 7469 -0.550000 15.99940
7470 OM 7470 OM OM1 7470 -0.550000 15.99940
7471 OM 7471 OM OM1 7471 -0.550000 15.99940
7472 OM 7472 OM OM1 7472 -0.550000 15.99940
7473 OM 7473 OM OM1 7473 -0.550000 15.99940
7474 OM 7474 OM OM1 7474 -0.550000 15.99940
7475 OM 7475 OM OM1 7475 -0.550000 15.99940
7476 OM 7476 OM OM1 7476 -0.550000 15.99940
7477 OM 7477 OM OM1 7477 -0.550000 15.99940
7478 OM 7478 OM OM1 7478 -0.550000 15.99940
7479 OM 7479 OM OM1 7479 -0.550000 15.99940
7480 OM 7480 OM OM1 7480 -0.550000 15.99940
7481 OM 7481 OM OM1 7481 -0.550000 15.99940
7482 OM 7482 OM OM1 7482 -0.550000 15.99940
7483 OM 7483 OM OM1 7483 -0.550000 15.99940
7484 OM 7484 OM OM1 7484 -0.550000 15.99940
7485 OM 7485 OM OM1 7485 -0.550000 15.99940
7486 OM 7486 OM OM1 7486 -0.550000 15.99940
7487 OM 7487 OM OM1 7487 -0.550000 15.99940
7488 OM 7488 OM OM1 7488 -0.550000 15.99940
7489 OM 7489 OM OM1 7489 -0.550000 15.99940
7490 OM 7490 OM OM1 7490 -0.550000 15.99940
7491 OM 7491 OM OM1 7491 -0.550000 15.99940
7492 OM 7492 OM OM1 7492 -0.550000 15.99940
7493 OM 7493 OM OM1 7493 -0.550000 15.99940
7494 OM 7494 OM OM1 7494 -0.550000 15.99940
7495 OM 7495 OM OM1 7495 -0.550000 15.99940
7496 OM 7496 OM OM1 7496 -0.550000 15.99940
7497 OM 7497 OM OM1 7497 -0.550000 15.99940
7498 OM 7498 OM OM1 7498 -0.550000 15.99940
7499 OM 7499 OM OM1 7499 -0.550000 15.99940
7500 OM 7500 OM OM1 7500 -0.550000 15.99940
7501 OM 7501 OM OM1 7501 -0.550000 15.99940
7502 OM 7502 OM OM1 7502 -0.550000 15.99940
7503 OM 7503 OM OM1 7503 -0.550000 15.99940
7504 OM 7504 OM OM1 7504 -0.550000 15.99940
7505 OM 7505 OM OM1 7505 -0.550000 15.99940
7506 OM 7506 OM OM1 7506 -0.550000 15.99940
7507 OM 7507 OM OM1 7507 -0.550000 15.99940
7508 OM 7508 OM OM1 7508 -0.550000 15.99940
7509 OM 7509 OM OM1 7509 -0.550000 15.99940
7510 OM 7510 OM OM1 7510 -0.550000 15.99940
7511 OM 7511 OM OM1 7511 -0.550000 15.99940
7512 OM 7512 OM OM1 7512 -0.550000 15.99940
7513 OM 7513 OM OM1 7513 -0.550000 15.99940
7514 OM 7514 OM OM1 7514 -0.550000 15.99940
7515 OM 7515 OM OM1 7515 -0.550000 15.99940
7516 OM 7516 OM OM1 7516 -0.550000 15.99940
7517 OM 7517 OM OM1 7517 -0.550000 15.99940
7518 OM 7518 OM OM1 7518 -0.550000 15.99940
7519 OM 7519 OM OM1 7519 -0.550000 15.99940
7520 OM 7520 OM OM1 7520 -0.550000 15.99940
7521 OM 7521 OM OM1 7521 -0.550000 15.99940
7522 OM 7522 OM OM1 7522 -0.550000 15.99940
7523 OM 7523 OM OM1 7523 -0.550000 15.99940
7524 OM 7524 OM OM1 7524 -0.550000 15.99940
7525 OM 7525 OM OM1 7525 -0.550000 15.99940
7526 OM 7526 OM OM1 7526 -0.550000 15.99940
7527 OM 7527 OM OM1 7527 -0.550000 15.99940
7528 OM 7528 OM OM1 7528 -0.550000 15.99940
7529 OM 7529 OM OM1 7529 -0.550000 15.99940
7530 OM 7530 OM OM1 7530 -0.550000 15.99940
7531 OM 7531 OM OM1 7531 -0.550000 15.99940
7532 OM 7532 OM OM1 7532 -0.550000 15.99940
7533 OM 7533 OM OM1 7533 -0.550000 15.99940
7534 OM 7534 OM OM1 7534 -0.550000 15.99940
7535 OM 7535 OM OM1 7535 -0.550000 15.99940
7536 OM 7536 OM OM1 7536 -0.550000 15.99940
7537 OM 7537 OM OM1 7537 -0.550000 15.99940
7538 OM 7538 OM OM1 7538 -0.550000 15.99940
7539 OM 7539 OM OM1 7539 -0.550000 15.99940
7540 OM 7540 OM OM1 7540 -0.550000 15.99940
7541 OM 7541 OM OM1 7541 -0.550000 15.99940
7542 OM 7542 OM OM1 7542 -0.550000 15.99940
7543 OM 7543 OM OM1 7543 -0.550000 15.99940
7544 OM 7544 OM OM1 7544 -0.550000 15.99940
7545 OM 7545 OM OM1 7545 -0.550000 15.99940
7546 OM 7546 OM OM1 7546 -0.550000 15.99940
7547 OM 7547 OM OM1 7547 -0.550000 15.99940
7548 OM 7548 OM OM1 7548 -0.550000 15.99940
7549 OM 7549 OM OM1 7549 -0.550000 15.99940
7550 OM 7550 OM OM1 7550 -0.550000 15.99940
7551 OM 7551 OM OM1 7551 -0.550000 15.99940
7552 OM 7552 OM OM1 7552 -0.550000 15.99940
7553 OM 7553 OM OM1 7553 -0.550000 15.99940
7554 OM 7554 OM OM1 7554 -0.550000 15.99940
7555 OM 7555 OM OM1 7555 -0.550000 15.99940
7556 OM 7556 OM OM1 7556 -0.550000 15.99940
7557 OM 7557 OM OM1 7557 -0.550000 15.99940
7558 OM 7558 OM OM1 7558 -0.550000 15.99940
7559 OM 7559 OM OM1 7559 -0.550000 15.99940
7560 OM 7560 OM OM1 7560 -0.550000 15.99940
7561 OM 7561 OM OM1 7561 -0.550000 15.99940
7562 OM 7562 OM OM1 7562 -0.550000 15.99940
7563 OM 7563 OM OM1 7563 -0.550000 15.99940
7564 OM 7564 OM OM1 7564 -0.550000 15.99940
7565 OM 7565 OM OM1 7565 -0.550000 15.99940
7566 OM 7566 OM OM1 7566 -0.550000 15.99940
7567 OM 7567 OM OM1 7567 -0.550000 15.99940
7568 OM 7568 OM OM1 7568 -0.550000 15.99940
7569 OM 7569 OM OM1 7569 -0.550000 15.99940
7570 OM 7570 OM OM1 7570 -0.550000 15.99940
7571 OM 7571 OM OM1 7571 -0.550000 15.99940
7572 OM 7572 OM OM1 7572 -0.550000 15.99940
7573 OM 7573 OM OM1 7573 -0.550000 15.99940
7574 OM 7574 OM OM1 7574 -0.550000 15.99940
7575 OM 7575 OM OM1 7575 -0.550000 15.99940
7576 OM 7576 OM OM1 7576 -0.550000 15.99940
7577 OM 7577 OM OM1 7577 -0.550000 15.99940
7578 OM 7578 OM OM1 7578 -0.550000 15.99940
7579 OM 7579 OM OM1 7579 -0.550000 15.99940
7580 OM 7580 OM OM1 7580 -0.550000 15.99940
7581 OM 7581 OM OM1 7581 -0.550000 15.99940
7582 OM 7582 OM OM1 7582 -0.550000 15.99940
7583 OM 7583 OM OM1 7583 -0.550000 15.99940
7584 OM 7584 OM OM1 7584 -0.550000 15.99940
7585 OM 7585 OM OM1 7585 -0.550000 15.99940
7586 OM 7586 OM OM1 7586 -0.550000 15.99940
7587 OM 7587 OM OM1 7587 -0.550000 15.99940
7588 OM 7588 OM OM1 7588 -0.550000 15.99940
7589 OM 7589 OM OM1 7589 -0.550000 15.99940
7590 OM 7590 OM OM1 7590 -0.550000 15.99940
7591 OM 7591 OM OM1 7591 -0.550000 15.99940
7592 OM 7592 OM OM1 7592 -0.550000 15.99940
7593 OM 7593 OM OM1 7593 -0.550000 15.99940
7594 OM 7594 OM OM1 7594 -0.550000 15.99940
7595 OM 7595 OM OM1 7595 -0.550000 15.99940
7596 OM 7596 OM OM1 7596 -0.550000 15.99940
7597 OM 7597 OM OM1 7597 -0.550000 15.99940
7598 OM 7598 OM OM1 7598 -0.550000 15.99940
7599 OM 7599 OM OM1 7599 -0.550000 15.99940
7600 OM 7600 OM OM1 7600 -0.550000 15.99940
7601 OM 7601 OM OM1 7601 -0.550000 15.99940
7602 OM 7602 OM OM1 7602 -0.550000 15.99940
7603 OM 7603 OM OM1 7603 -0.550000 15.99940
7604 OM 7604 OM OM1 7604 -0.550000 15.99940
7605 OM 7605 OM OM1 7605 -0.550000 15.99940
7606 OM 7606 OM OM1 7606 -0.550000 15.99940
7607 OM 7607 OM OM1 7607 -0.550000 15.99940
7608 OM 7608 OM OM1 7608 -0.550000 15.99940
7609 OM 7609 OM OM1 7609 -0.550000 15.99940
7610 OM 7610 OM OM1 7610 -0.550000 15.99940
7611 OM 7611 OM OM1 7611 -0.550000 15.99940
7612 OM 7612 OM OM1 7612 -0.550000 15.99940
7613 OM 7613 OM OM1 7613 -0.550000 15.99940
7614 OM 7614 OM OM1 7614 -0.550000 15.99940
7615 OM 7615 OM OM1 7615 -0.550000 15.99940
7616 OM 7616 OM OM1 7616 -0.550000 15.99940
7617 OM 7617 OM OM1 7617 -0.550000 15.99940
7618 OM 7618 OM OM1 7618 -0.550000 15.99940
7619 OM 7619 OM OM1 7619 -0.550000 15.99940
7620 OM 7620 OM OM1 7620 -0.550000 15.99940
7621 OM 7621 OM OM1 7621 -0.550000 15.99940
7622 OM 7622 OM OM1 7622 -0.550000 15.99940
7623 OM 7623 OM OM1 7623 -0.550000 15.99940
7624 OM 7624 OM OM1 7624 -0.550000 15.99940
7625 OM 7625 OM OM1 7625 -0.550000 15.99940
7626 OM 7626 OM OM1 7626 -0.550000 15.99940
7627 OM 7627 OM OM1 7627 -0.550000 15.99940
7628 OM 7628 OM OM1 7628 -0.550000 15.99940
7629 OM 7629 OM OM1 7629 -0.550000 15.99940
7630 OM 7630 OM OM1 7630 -0.550000 15.99940
7631 OM 7631 OM OM1 7631 -0.550000 15.99940
7632 OM 7632 OM OM1 7632 -0.550000 15.99940
7633 OM 7633 OM OM1 7633 -0.550000 15.99940
7634 OM 7634 OM OM1 7634 -0.550000 15.99940
7635 OM 7635 OM OM1 7635 -0.550000 15.99940
7636 OM 7636 OM OM1 7636 -0.550000 15.99940
7637 OM 7637 OM OM1 7637 -0.550000 15.99940
7638 OM 7638 OM OM1 7638 -0.550000 15.99940
7639 OM 7639 OM OM1 7639 -0.550000 15.99940
7640 OM 7640 OM OM1 7640 -0.550000 15.99940
7641 OM 7641 OM OM1 7641 -0.550000 15.99940
7642 OM 7642 OM OM1 7642 -0.550000 15.99940
7643 OM 7643 OM OM1 7643 -0.550000 15.99940
7644 OM 7644 OM OM1 7644 -0.550000 15.99940
7645 OM 7645 OM OM1 7645 -0.550000 15.99940
7646 OM 7646 OM OM1 7646 -0.550000 15.99940
7647 OM 7647 OM OM1 7647 -0.550000 15.99940
7648 OM 7648 OM OM1 7648 -0.550000 15.99940
7649 OM 7649 OM OM1 7649 -0.550000 15.99940
7650 OM 7650 OM OM1 7650 -0.550000 15.99940
7651 OM 7651 OM OM1 7651 -0.550000 15.99940
7652 OM 7652 OM OM1 7652 -0.550000 15.99940
7653 OM 7653 OM OM1 7653 -0.550000 15.99940
7654 OM 7654 OM OM1 7654 -0.550000 15.99940
7655 OM 7655 OM OM1 7655 -0.550000 15.99940
7656 OM 7656 OM OM1 7656 -0.550000 15.99940
7657 OM 7657 OM OM1 7657 -0.550000 15.99940
7658 OM 7658 OM OM1 7658 -0.550000 15.99940
7659 OM 7659 OM OM1 7659 -0.550000 15.99940
7660 OM 7660 OM OM1 7660 -0.550000 15.99940
7661 OM 7661 OM OM1 7661 -0.550000 15.99940
7662 OM 7662 OM OM1 7662 -0.550000 15.99940
7663 OM 7663 OM OM1 7663 -0.550000 15.99940
7664 OM 7664 OM OM1 7664 -0.550000 15.99940
7665 OM 7665 OM OM1 7665 -0.550000 15.99940
7666 OM 7666 OM OM1 7666 -0.550000 15.99940
7667 OM 7667 OM OM1 7667 -0.550000 15.99940
7668 OM 7668 OM OM1 7668 -0.550000 15.99940
7669 OM 7669 OM OM1 7669 -0.550000 15.99940
7670 OM 7670 OM OM1 7670 -0.550000 15.99940
7671 OM 7671 OM OM1 7671 -0.550000 15.99940
7672 OM 7672 OM OM1 7672 -0.550000 15.99940
7673 OM 7673 OM OM1 7673 -0.550000 15.99940
7674 OM 7674 OM OM1 7674 -0.550000 15.99940
7675 OM 7675 OM OM1 7675 -0.550000 15.99940
7676 OM 7676 OM OM1 7676 -0.550000 15.99940
7677 OM 7677 OM OM1 7677 -0.550000 15.99940
7678 OM 7678 OM OM1 7678 -0.550000 15.99940
7679 OM 7679 OM OM1 7679 -0.550000 15.99940
7680 OM 7680 OM OM1 7680 -0.550000 15.99940
7681 OM 7681 OM OM1 7681 -0.550000 15.99940
7682 OM 7682 OM OM1 7682 -0.550000 15.99940
7683 OM 7683 OM OM1 7683 -0.550000 15.99940
7684 OM 7684 OM OM1 7684 -0.550000 15.99940
7685 OM 7685 OM OM1 7685 -0.550000 15.99940
7686 OM 7686 OM OM1 7686 -0.550000 15.99940
7687 OM 7687 OM OM1 7687 -0.550000 15.99940
7688 OM 7688 OM OM1 7688 -0.550000 15.99940
7689 OM 7689 OM OM1 7689 -0.550000 15.99940
7690 OM 7690 OM OM1 7690 -0.550000 15.99940
7691 OM 7691 OM OM1 7691 -0.550000 15.99940
7692 OM 7692 OM OM1 7692 -0.550000 15.99940
7693 OM 7693 OM OM1 7693 -0.550000 15.99940
7694 OM 7694 OM OM1 7694 -0.550000 15.99940
7695 OM 7695 OM OM1 7695 -0.550000 15.99940
7696 OM 7696 OM OM1 7696 -0.550000 15.99940
7697 OM 7697 OM OM1 7697 -0.550000 15.99940
7698 OM 7698 OM OM1 7698 -0.550000 15.99940
7699 OM 7699 OM OM1 7699 -0.550000 15.99940
7700 OM 7700 OM OM1 7700 -0.550000 15.99940
7701 OM 7701 OM OM1 7701 -0.550000 15.99940
7702 OM 7702 OM OM1 7702 -0.550000 15.99940
7703 OM 7703 OM OM1 7703 -0.550000 15.99940
7704 OM 7704 OM OM1 7704 -0.550000 15.99940
7705 OM 7705 OM OM1 7705 -0.550000 15.99940
7706 OM 7706 OM OM1 7706 -0.550000 15.99940
7707 OM 7707 OM OM1 7707 -0.550000 15.99940
7708 OM 7708 OM OM1 7708 -0.550000 15.99940
7709 OM 7709 OM OM1 7709 -0.550000 15.99940
7710 OM 7710 OM OM1 7710 -0.550000 15.99940
7711 OM 7711 OM OM1 7711 -0.550000 15.99940
7712 OM 7712 OM OM1 7712 -0.550000 15.99940
7713 OM 7713 OM OM1 7713 -0.550000 15.99940
7714 OM 7714 OM OM1 7714 -0.550000 15.99940
7715 OM 7715 OM OM1 7715 -0.550000 15.99940
7716 OM 7716 OM OM1 7716 -0.550000 15.99940
7717 OM 7717 OM OM1 7717 -0.550000 15.99940
7718 OM 7718 OM OM1 7718 -0.550000 15.99940
7719 OM 7719 OM OM1 7719 -0.550000 15.99940
7720 OM 7720 OM OM1 7720 -0.550000 15.99940
7721 OM 7721 OM OM1 7721 -0.550000 15.99940
7722 OM 7722 OM OM1 7722 -0.550000 15.99940
7723 OM 7723 OM OM1 7723 -0.550000 15.99940
7724 OM 7724 OM OM1 7724 -0.550000 15.99940
7725 OM 7725 OM OM1 7725 -0.550000 15.99940
7726 OM 7726 OM OM1 7726 -0.550000 15.99940
7727 OM 7727 OM OM1 7727 -0.550000 15.99940
7728 OM 7728 OM OM1 7728 -0.550000 15.99940
7729 OM 7729 OM OM1 7729 -0.550000 15.99940
7730 OM 7730 OM OM1 7730 -0.550000 15.99940
7731 OM 7731 OM OM1 7731 -0.550000 15.99940
7732 OM 7732 OM OM1 7732 -0.550000 15.99940
7733 OM 7733 OM OM1 7733 -0.550000 15.99940
7734 OM 7734 OM OM1 7734 -0.550000 15.99940
7735 OM 7735 OM OM1 7735 -0.550000 15.99940
7736 OM 7736 OM OM1 7736 -0.550000 15.99940
7737 OM 7737 OM OM1 7737 -0.550000 15.99940
7738 OM 7738 OM OM1 7738 -0.550000 15.99940
7739 OM 7739 OM OM1 7739 -0.550000 15.99940
7740 OM 7740 OM OM1 7740 -0.550000 15.99940
7741 OM 7741 OM OM1 7741 -0.550000 15.99940
7742 OM 7742 OM OM1 7742 -0.550000 15.99940
7743 OM 7743 OM OM1 7743 -0.550000 15.99940
7744 OM 7744 OM OM1 7744 -0.550000 15.99940
7745 OM 7745 OM OM1 7745 -0.550000 15.99940
7746 OM 7746 OM OM1 7746 -0.550000 15.99940
7747 OM 7747 OM OM1 7747 -0.550000 15.99940
7748 OM 7748 OM OM1 7748 -0.550000 15.99940
7749 OM 7749 OM OM1 7749 -0.550000 15.99940
7750 OM 7750 OM OM1 7750 -0.550000 15.99940
7751 OM 7751 OM OM1 7751 -0.550000 15.99940
7752 OM 7752 OM OM1 7752 -0.550000 15.99940
7753 OM 7753 OM OM1 7753 -0.550000 15.99940
7754 OM 7754 OM OM1 7754 -0.550000 15.99940
7755 OM 7755 OM OM1 7755 -0.550000 15.99940
7756 OM 7756 OM OM1 7756 -0.550000 15.99940
7757 OM 7757 OM OM1 7757 -0.550000 15.99940
7758 OM 7758 OM OM1 7758 -0.550000 15.99940
7759 OM 7759 OM OM1 7759 -0.550000 15.99940
7760 OM 7760 OM OM1 7760 -0.550000 15.99940
7761 OM 7761 OM OM1 7761 -0.550000 15.99940
7762 OM 7762 OM OM1 7762 -0.550000 15.99940
7763 OM 7763 OM OM1 7763 -0.550000 15.99940
7764 OM 7764 OM OM1 7764 -0.550000 15.99940
7765 OM 7765 OM OM1 7765 -0.550000 15.99940
7766 OM 7766 OM OM1 7766 -0.550000 15.99940
7767 OM 7767 OM OM1 7767 -0.550000 15.99940
7768 OM 7768 OM OM1 7768 -0.550000 15.99940
7769 OM 7769 OM OM1 7769 -0.550000 15.99940
7770 OM 7770 OM OM1 7770 -0.550000 15.99940
7771 OM 7771 OM OM1 7771 -0.550000 15.99940
7772 OM 7772 OM OM1 7772 -0.550000 15.99940
7773 OM 7773 OM OM1 7773 -0.550000 15.99940
7774 OM 7774 OM OM1 7774 -0.550000 15.99940
7775 OM 7775 OM OM1 7775 -0.550000 15.99940
7776 OM 7776 OM OM1 7776 -0.550000 15.99940
7777 OM 7777 OM OM1 7777 -0.550000 15.99940
7778 OM 7778 OM OM1 7778 -0.550000 15.99940
7779 OM 7779 OM OM1 7779 -0.550000 15.99940
7780 OM 7780 OM OM1 7780 -0.550000 15.99940
7781 OM 7781 OM OM1 7781 -0.550000 15.99940
7782 OM 7782 OM OM1 7782 -0.550000 15.99940
7783 OM 7783 OM OM1 7783 -0.550000 15.99940
7784 OM 7784 OM OM1 7784 -0.550000 15.99940
7785 OM 7785 OM OM1 7785 -0.550000 15.99940
7786 OM 7786 OM OM1 7786 -0.550000 15.99940
7787 OM 7787 OM OM1 7787 -0.550000 15.99940
7788 OM 7788 OM OM1 7788 -0.550000 15.99940
7789 OM 7789 OM OM1 7789 -0.550000 15.99940
7790 OM 7790 OM OM1 7790 -0.550000 15.99940
7791 OM 7791 OM OM1 7791 -0.550000 15.99940
7792 OM 7792 OM OM1 7792 -0.550000 15.99940
7793 OM 7793 OM OM1 7793 -0.550000 15.99940
7794 OM 7794 OM OM1 7794 -0.550000 15.99940
7795 OM 7795 OM OM1 7795 -0.550000 15.99940
7796 OM 7796 OM OM1 7796 -0.550000 15.99940
7797 OM 7797 OM OM1 7797 -0.550000 15.99940
7798 OM 7798 OM OM1 7798 -0.550000 15.99940
7799 OM 7799 OM OM1 7799 -0.550000 15.99940
7800 OM 7800 OM OM1 7800 -0.550000 15.99940
7801 OM 7801 OM OM1 7801 -0.550000 15.99940
7802 OM 7802 OM OM1 7802 -0.550000 15.99940
7803 OM 7803 OM OM1 7803 -0.550000 15.99940
7804 OM 7804 OM OM1 7804 -0.550000 15.99940
7805 OM 7805 OM OM1 7805 -0.550000 15.99940
7806 OM 7806 OM OM1 7806 -0.550000 15.99940
7807 OM 7807 OM OM1 7807 -0.550000 15.99940
7808 OM 7808 OM OM1 7808 -0.550000 15.99940
7809 OM 7809 OM OM1 7809 -0.550000 15.99940
7810 OM 7810 OM OM1 7810 -0.550000 15.99940
7811 OM 7811 OM OM1 7811 -0.550000 15.99940
7812 OM 7812 OM OM1 7812 -0.550000 15.99940
7813 OM 7813 OM OM1 7813 -0.550000 15.99940
7814 OM 7814 OM OM1 7814 -0.550000 15.99940
7815 OM 7815 OM OM1 7815 -0.550000 15.99940
7816 OM 7816 OM OM1 7816 -0.550000 15.99940
7817 OM 7817 OM OM1 7817 -0.550000 15.99940
7818 OM 7818 OM OM1 7818 -0.550000 15.99940
7819 OM 7819 OM OM1 7819 -0.550000 15.99940
7820 OM 7820 OM OM1 7820 -0.550000 15.99940
7821 OM 7821 OM OM1 7821 -0.550000 15.99940
7822 OM 7822 OM OM1 7822 -0.550000 15.99940
7823 OM 7823 OM OM1 7823 -0.550000 15.99940
7824 OM 7824 OM OM1 7824 -0.550000 15.99940
7825 OM 7825 OM OM1 7825 -0.550000 15.99940
7826 OM 7826 OM OM1 7826 -0.550000 15.99940
7827 OM 7827 OM OM1 7827 -0.550000 15.99940
7828 OM 7828 OM OM1 7828 -0.550000 15.99940
7829 OM 7829 OM OM1 7829 -0.550000 15.99940
7830 OM 7830 OM OM1 7830 -0.550000 15.99940
7831 OM 7831 OM OM1 7831 -0.550000 15.99940
7832 OM 7832 OM OM1 7832 -0.550000 15.99940
7833 OM 7833 OM OM1 7833 -0.550000 15.99940
7834 OM 7834 OM OM1 7834 -0.550000 15.99940
7835 OM 7835 OM OM1 7835 -0.550000 15.99940
7836 OM 7836 OM OM1 7836 -0.550000 15.99940
7837 OM 7837 OM OM1 7837 -0.550000 15.99940
7838 OM 7838 OM OM1 7838 -0.550000 15.99940
7839 OM 7839 OM OM1 7839 -0.550000 15.99940
7840 OM 7840 OM OM1 7840 -0.550000 15.99940
7841 OM 7841 OM OM1 7841 -0.550000 15.99940
7842 OM 7842 OM OM1 7842 -0.550000 15.99940
7843 OM 7843 OM OM1 7843 -0.550000 15.99940
7844 OM 7844 OM OM1 7844 -0.550000 15.99940
7845 OM 7845 OM OM1 7845 -0.550000 15.99940
7846 OM 7846 OM OM1 7846 -0.550000 15.99940
7847 OM 7847 OM OM1 7847 -0.550000 15.99940
7848 OM 7848 OM OM1 7848 -0.550000 15.99940
7849 OM 7849 OM OM1 7849 -0.550000 15.99940
7850 OM 7850 OM OM1 7850 -0.550000 15.99940
7851 OM 7851 OM OM1 7851 -0.550000 15.99940
7852 OM 7852 OM OM1 7852 -0.550000 15.99940
7853 OM 7853 OM OM1 7853 -0.550000 15.99940
7854 OM 7854 OM OM1 7854 -0.550000 15.99940
7855 OM 7855 OM OM1 7855 -0.550000 15.99940
7856 OM 7856 OM OM1 7856 -0.550000 15.99940
7857 OM 7857 OM OM1 7857 -0.550000 15.99940
7858 OM 7858 OM OM1 7858 -0.550000 15.99940
7859 OM 7859 OM OM1 7859 -0.550000 15.99940
7860 OM 7860 OM OM1 7860 -0.550000 15.99940
7861 OM 7861 OM OM1 7861 -0.550000 15.99940
7862 OM 7862 OM OM1 7862 -0.550000 15.99940
7863 OM 7863 OM OM1 7863 -0.550000 15.99940
7864 OM 7864 OM OM1 7864 -0.550000 15.99940
7865 OM 7865 OM OM1 7865 -0.550000 15.99940
7866 OM 7866 OM OM1 7866 -0.550000 15.99940
7867 OM 7867 OM OM1 7867 -0.550000 15.99940
7868 OM 7868 OM OM1 7868 -0.550000 15.99940
7869 OM 7869 OM OM1 7869 -0.550000 15.99940
7870 OM 7870 OM OM1 7870 -0.550000 15.99940
7871 OM 7871 OM OM1 7871 -0.550000 15.99940
7872 OM 7872 OM OM1 7872 -0.550000 15.99940
7873 OM 7873 OM OM1 7873 -0.550000 15.99940
7874 OM 7874 OM OM1 7874 -0.550000 15.99940
7875 OM 7875 OM OM1 7875 -0.550000 15.99940
7876 OM 7876 OM OM1 7876 -0.550000 15.99940
7877 OM 7877 OM OM1 7877 -0.550000 15.99940
7878 OM 7878 OM OM1 7878 -0.550000 15.99940
7879 OM 7879 OM OM1 7879 -0.550000 15.99940
7880 OM 7880 OM OM1 7880 -0.550000 15.99940
7881 OM 7881 OM OM1 7881 -0.550000 15.99940
7882 OM 7882 OM OM1 7882 -0.550000 15.99940
7883 OM 7883 OM OM1 7883 -0.550000 15.99940
7884 OM 7884 OM OM1 7884 -0.550000 15.99940
7885 OM 7885 OM OM1 7885 -0.550000 15.99940
7886 OM 7886 OM OM1 7886 -0.550000 15.99940
7887 OM 7887 OM OM1 7887 -0.550000 15.99940
7888 OM 7888 OM OM1 7888 -0.550000 15.99940
7889 OM 7889 OM OM1 7889 -0.550000 15.99940
7890 OM 7890 OM OM1 7890 -0.550000 15.99940
7891 OM 7891 OM OM1 7891 -0.550000 15.99940
7892 OM 7892 OM OM1 7892 -0.550000 15.99940
7893 OM 7893 OM OM1 7893 -0.550000 15.99940
7894 OM 7894 OM OM1 7894 -0.550000 15.99940
7895 OM 7895 OM OM1 7895 -0.550000 15.99940
7896 OM 7896 OM OM1 7896 -0.550000 15.99940
7897 OM 7897 OM OM1 7897 -0.550000 15.99940
7898 OM 7898 OM OM1 7898 -0.550000 15.99940
7899 OM 7899 OM OM1 7899 -0.550000 15.99940
7900 OM 7900 OM OM1 7900 -0.550000 15.99940
7901 OM 7901 OM OM1 7901 -0.550000 15.99940
7902 OM 7902 OM OM1 7902 -0.550000 15.99940
7903 OM 7903 OM OM1 7903 -0.550000 15.99940
7904 OM 7904 OM OM1 7904 -0.550000 15.99940
7905 OM 7905 OM OM1 7905 -0.550000 15.99940
7906 OM 7906 OM OM1 7906 -0.550000 15.99940
7907 OM 7907 OM OM1 7907 -0.550000 15.99940
7908 OM 7908 OM OM1 7908 -0.550000 15.99940
7909 OM 7909 OM OM1 7909 -0.550000 15.99940
7910 OM 7910 OM OM1 7910 -0.550000 15.99940
7911 OM 7911 OM OM1 7911 -0.550000 15.99940
7912 OM 7912 OM OM1 7912 -0.550000 15.99940
7913 OM 7913 OM OM1 7913 -0.550000 15.99940
7914 OM 7914 OM OM1 7914 -0.550000 15.99940
7915 OM 7915 OM OM1 7915 -0.550000 15.99940
7916 OM 7916 OM OM1 7916 -0.550000 15.99940
7917 OM 7917 OM OM1 7917 -0.550000 15.99940
7918 OM 7918 OM OM1 7918 -0.550000 15.99940
7919 OM 7919 OM OM1 7919 -0.550000 15.99940
7920 OM 7920 OM OM1 7920 -0.550000 15.99940
7921 OM 7921 OM OM1 7921 -0.550000 15.99940
7922 OM 7922 OM OM1 7922 -0.550000 15.99940
7923 OM 7923 OM OM1 7923 -0.550000 15.99940
7924 OM 7924 OM OM1 7924 -0.550000 15.99940
7925 OM 7925 OM OM1 7925 -0.550000 15.99940
7926 OM 7926 OM OM1 7926 -0.550000 15.99940
7927 OM 7927 OM OM1 7927 -0.550000 15.99940
7928 OM 7928 OM OM1 7928 -0.550000 15.99940
7929 OM 7929 OM OM1 7929 -0.550000 15.99940
7930 OM 7930 OM OM1 7930 -0.550000 15.99940
7931 OM 7931 OM OM1 7931 -0.550000 15.99940
7932 OM 7932 OM OM1 7932 -0.550000 15.99940
7933 OM 7933 OM OM1 7933 -0.550000 15.99940
7934 OM 7934 OM OM1 7934 -0.550000 15.99940
7935 OM 7935 OM OM1 7935 -0.550000 15.99940
7936 OM 7936 OM OM1 7936 -0.550000 15.99940
7937 OM 7937 OM OM1 7937 -0.550000 15.99940
7938 OM 7938 OM OM1 7938 -0.550000 15.99940
7939 OM 7939 OM OM1 7939 -0.550000 15.99940
7940 OM 7940 OM OM1 7940 -0.550000 15.99940
7941 OM 7941 OM OM1 7941 -0.550000 15.99940
7942 OM 7942 OM OM1 7942 -0.550000 15.99940
7943 OM 7943 OM OM1 7943 -0.550000 15.99940
7944 OM 7944 OM OM1 7944 -0.550000 15.99940
7945 OM 7945 OM OM1 7945 -0.550000 15.99940
7946 OM 7946 OM OM1 7946 -0.550000 15.99940
7947 OM 7947 OM OM1 7947 -0.550000 15.99940
7948 OM 7948 OM OM1 7948 -0.550000 15.99940
7949 OM 7949 OM OM1 7949 -0.550000 15.99940
7950 OM 7950 OM OM1 7950 -0.550000 15.99940
7951 OM 7951 OM OM1 7951 -0.550000 15.99940
7952 OM 7952 OM OM1 7952 -0.550000 15.99940
7953 OM 7953 OM OM1 7953 -0.550000 15.99940
7954 OM 7954 OM OM1 7954 -0.550000 15.99940
7955 OM 7955 OM OM1 7955 -0.550000 15.99940
7956 OM 7956 OM OM1 7956 -0.550000 15.99940
7957 OM 7957 OM OM1 7957 -0.550000 15.99940
7958 OM 7958 OM OM1 7958 -0.550000 15.99940
7959 OM 7959 OM OM1 7959 -0.550000 15.99940
7960 OM 7960 OM OM1 7960 -0.550000 15.99940
7961 OM 7961 OM OM1 7961 -0.550000 15.99940
7962 OM 7962 OM OM1 7962 -0.550000 15.99940
7963 OM 7963 OM OM1 7963 -0.550000 15.99940
7964 OM 7964 OM OM1 7964 -0.550000 15.99940
7965 OM 7965 OM OM1 7965 -0.550000 15.99940
7966 OM 7966 OM OM1 7966 -0.550000 15.99940
7967 OM 7967 OM OM1 7967 -0.550000 15.99940
7968 OM 7968 OM OM1 7968 -0.550000 15.99940
7969 OM 7969 OM OM1 7969 -0.550000 15.99940
7970 OM 7970 OM OM1 7970 -0.550000 15.99940
7971 OM 7971 OM OM1 7971 -0.550000 15.99940
7972 OM 7972 OM OM1 7972 -0.550000 15.99940
7973 OM 7973 OM OM1 7973 -0.550000 15.99940
7974 OM 7974 OM OM1 7974 -0.550000 15.99940
7975 OM 7975 OM OM1 7975 -0.550000 15.99940
7976 OM 7976 OM OM1 7976 -0.550000 15.99940
7977 OM 7977 OM OM1 7977 -0.550000 15.99940
7978 OM 7978 OM OM1 7978 -0.550000 15.99940
7979 OM 7979 OM OM1 7979 -0.550000 15.99940
7980 OM 7980 OM OM1 7980 -0.550000 15.99940
7981 OM 7981 OM OM1 7981 -0.550000 15.99940
7982 OM 7982 OM OM1 7982 -0.550000 15.99940
7983 OM 7983 OM OM1 7983 -0.550000 15.99940
7984 OM 7984 OM OM1 7984 -0.550000 15.99940
7985 OM 7985 OM OM1 7985 -0.550000 15.99940
7986 OM 7986 OM OM1 7986 -0.550000 15.99940
7987 OM 7987 OM OM1 7987 -0.550000 15.99940
7988 OM 7988 OM OM1 7988 -0.550000 15.99940
7989 OM 7989 OM OM1 7989 -0.550000 15.99940
7990 OM 7990 OM OM1 7990 -0.550000 15.99940
7991 OM 7991 OM OM1 7991 -0.550000 15.99940
7992 OM 7992 OM OM1 7992 -0.550000 15.99940
7993 OM 7993 OM OM1 7993 -0.550000 15.99940
7994 OM 7994 OM OM1 7994 -0.550000 15.99940
7995 OM 7995 OM OM1 7995 -0.550000 15.99940
7996 OM 7996 OM OM1 7996 -0.550000 15.99940
7997 OM 7997 OM OM1 7997 -0.550000 15.99940
7998 OM 7998 OM OM1 7998 -0.550000 15.99940
7999 OM 7999 OM OM1 7999 -0.550000 15.99940
8000 OM 8000 OM OM1 8000 -0.550000 15.99940
8001 OM 8001 OM OM1 8001 -0.550000 15.99940
8002 OM 8002 OM OM1 8002 -0.550000 15.99940
8003 OM 8003 OM OM1 8003 -0.550000 15.99940
8004 OM 8004 OM OM1 8004 -0.550000 15.99940
8005 OM 8005 OM OM1 8005 -0.550000 15.99940
8006 OM 8006 OM OM1 8006 -0.550000 15.99940
8007 OM 8007 OM OM1 8007 -0.550000 15.99940
8008 OM 8008 OM OM1 8008 -0.550000 15.99940
8009 OM 8009 OM OM1 8009 -0.550000 15.99940
8010 OM 8010 OM OM1 8010 -0.550000 15.99940
8011 OM 8011 OM OM1 8011 -0.550000 15.99940
8012 OM 8012 OM OM1 8012 -0.550000 15.99940
8013 OM 8013 OM OM1 8013 -0.550000 15.99940
8014 OM 8014 OM OM1 8014 -0.550000 15.99940
8015 OM 8015 OM OM1 8015 -0.550000 15.99940
8016 OM 8016 OM OM1 8016 -0.550000 15.99940
8017 OM 8017 OM OM1 8017 -0.550000 15.99940
8018 OM 8018 OM OM1 8018 -0.550000 15.99940
8019 OM 8019 OM OM1 8019 -0.550000 15.99940
8020 OM 8020 OM OM1 8020 -0.550000 15.99940
8021 OM 8021 OM OM1 8021 -0.550000 15.99940
8022 OM 8022 OM OM1 8022 -0.550000 15.99940
8023 OM 8023 OM OM1 8023 -0.550000 15.99940
8024 OM 8024 OM OM1 8024 -0.550000 15.99940
8025 OM 8025 OM OM1 8025 -0.550000 15.99940
8026 OM 8026 OM OM1 8026 -0.550000 15.99940
8027 OM 8027 OM OM1 8027 -0.550000 15.99940
8028 OM 8028 OM OM1 8028 -0.550000 15.99940
8029 OM 8029 OM OM1 8029 -0.550000 15.99940
8030 OM 8030 OM OM1 8030 -0.550000 15.99940
8031 OM 8031 OM OM1 8031 -0.550000 15.99940
8032 OM 8032 OM OM1 8032 -0.550000 15.99940
8033 OM 8033 OM OM1 8033 -0.550000 15.99940
8034 OM 8034 OM OM1 8034 -0.550000 15.99940
8035 OM 8035 OM OM1 8035 -0.550000 15.99940
8036 OM 8036 OM OM1 8036 -0.550000 15.99940
8037 OM 8037 OM OM1 8037 -0.550000 15.99940
8038 OM 8038 OM OM1 8038 -0.550000 15.99940
8039 OM 8039 OM OM1 8039 -0.550000 15.99940
8040 OM 8040 OM OM1 8040 -0.550000 15.99940
8041 OM 8041 OM OM1 8041 -0.550000 15.99940
8042 OM 8042 OM OM1 8042 -0.550000 15.99940
8043 OM 8043 OM OM1 8043 -0.550000 15.99940
8044 OM 8044 OM OM1 8044 -0.550000 15.99940
8045 OM 8045 OM OM1 8045 -0.550000 15.99940
8046 OM 8046 OM OM1 8046 -0.550000 15.99940
8047 OM 8047 OM OM1 8047 -0.550000 15.99940
8048 OM 8048 OM OM1 8048 -0.550000 15.99940
8049 OM 8049 OM OM1 8049 -0.550000 15.99940
8050 OM 8050 OM OM1 8050 -0.550000 15.99940
8051 OM 8051 OM OM1 8051 -0.550000 15.99940
8052 OM 8052 OM OM1 8052 -0.550000 15.99940
8053 OM 8053 OM OM1 8053 -0.550000 15.99940
8054 OM 8054 OM OM1 8054 -0.550000 15.99940
8055 OM 8055 OM OM1 8055 -0.550000 15.99940
8056 OM 8056 OM OM1 8056 -0.550000 15.99940
8057 OM 8057 OM OM1 8057 -0.550000 15.99940
8058 OM 8058 OM OM1 8058 -0.550000 15.99940
8059 OM 8059 OM OM1 8059 -0.550000 15.99940
8060 OM 8060 OM OM1 8060 -0.550000 15.99940
8061 OM 8061 OM OM1 8061 -0.550000 15.99940
8062 OM 8062 OM OM1 8062 -0.550000 15.99940
8063 OM 8063 OM OM1 8063 -0.550000 15.99940
8064 OM 8064 OM OM1 8064 -0.550000 15.99940
8065 OM 8065 OM OM1 8065 -0.550000 15.99940
8066 OM 8066 OM OM1 8066 -0.550000 15.99940
8067 OM 8067 OM OM1 8067 -0.550000 15.99940
8068 OM 8068 OM OM1 8068 -0.550000 15.99940
8069 OM 8069 OM OM1 8069 -0.550000 15.99940
8070 OM 8070 OM OM1 8070 -0.550000 15.99940
8071 OM 8071 OM OM1 8071 -0.550000 15.99940
8072 OM 8072 OM OM1 8072 -0.550000 15.99940
8073 OM 8073 OM OM1 8073 -0.550000 15.99940
8074 OM 8074 OM OM1 8074 -0.550000 15.99940
8075 OM 8075 OM OM1 8075 -0.550000 15.99940
8076 OM 8076 OM OM1 8076 -0.550000 15.99940
8077 OM 8077 OM OM1 8077 -0.550000 15.99940
8078 OM 8078 OM OM1 8078 -0.550000 15.99940
8079 OM 8079 OM OM1 8079 -0.550000 15.99940
8080 OM 8080 OM OM1 8080 -0.550000 15.99940
8081 OM 8081 OM OM1 8081 -0.550000 15.99940
8082 OM 8082 OM OM1 8082 -0.550000 15.99940
8083 OM 8083 OM OM1 8083 -0.550000 15.99940
8084 OM 8084 OM OM1 8084 -0.550000 15.99940
8085 OM 8085 OM OM1 8085 -0.550000 15.99940
8086 OM 8086 OM OM1 8086 -0.550000 15.99940
8087 OM 8087 OM OM1 8087 -0.550000 15.99940
8088 OM 8088 OM OM1 8088 -0.550000 15.99940
8089 OM 8089 OM OM1 8089 -0.550000 15.99940
8090 OM 8090 OM OM1 8090 -0.550000 15.99940
8091 OM 8091 OM OM1 8091 -0.550000 15.99940
8092 OM 8092 OM OM1 8092 -0.550000 15.99940
8093 OM 8093 OM OM1 8093 -0.550000 15.99940
8094 OM 8094 OM OM1 8094 -0.550000 15.99940
8095 OM 8095 OM OM1 8095 -0.550000 15.99940
8096 OM 8096 OM OM1 8096 -0.550000 15.99940
8097 OM 8097 OM OM1 8097 -0.550000 15.99940
8098 OM 8098 OM OM1 8098 -0.550000 15.99940
8099 OM 8099 OM OM1 8099 -0.550000 15.99940
8100 OM 8100 OM OM1 8100 -0.550000 15.99940
8101 OM 8101 OM OM1 8101 -0.550000 15.99940
8102 OM 8102 OM OM1 8102 -0.550000 15.99940
8103 OM 8103 OM OM1 8103 -0.550000 15.99940
8104 OM 8104 OM OM1 8104 -0.550000 15.99940
8105 OM 8105 OM OM1 8105 -0.550000 15.99940
8106 OM 8106 OM OM1 8106 -0.550000 15.99940
8107 OM 8107 OM OM1 8107 -0.550000 15.99940
8108 OM 8108 OM OM1 8108 -0.550000 15.99940
8109 OM 8109 OM OM1 8109 -0.550000 15.99940
8110 OM 8110 OM OM1 8110 -0.550000 15.99940
8111 OM 8111 OM OM1 8111 -0.550000 15.99940
8112 OM 8112 OM OM1 8112 -0.550000 15.99940
8113 OM 8113 OM OM1 8113 -0.550000 15.99940
8114 OM 8114 OM OM1 8114 -0.550000 15.99940
8115 OM 8115 OM OM1 8115 -0.550000 15.99940
8116 OM 8116 OM OM1 8116 -0.550000 15.99940
8117 OM 8117 OM OM1 8117 -0.550000 15.99940
8118 OM 8118 OM OM1 8118 -0.550000 15.99940
8119 OM 8119 OM OM1 8119 -0.550000 15.99940
8120 OM 8120 OM OM1 8120 -0.550000 15.99940
8121 OM 8121 OM OM1 8121 -0.550000 15.99940
8122 OM 8122 OM OM1 8122 -0.550000 15.99940
8123 OM 8123 OM OM1 8123 -0.550000 15.99940
8124 OM 8124 OM OM1 8124 -0.550000 15.99940
8125 OM 8125 OM OM1 8125 -0.550000 15.99940
8126 OM 8126 OM OM1 8126 -0.550000 15.99940
8127 OM 8127 OM OM1 8127 -0.550000 15.99940
8128 OM 8128 OM OM1 8128 -0.550000 15.99940
8129 OM 8129 OM OM1 8129 -0.550000 15.99940
8130 OM 8130 OM OM1 8130 -0.550000 15.99940
8131 OM 8131 OM OM1 8131 -0.550000 15.99940
8132 OM 8132 OM OM1 8132 -0.550000 15.99940
8133 OM 8133 OM OM1 8133 -0.550000 15.99940
8134 OM 8134 OM OM1 8134 -0.550000 15.99940
8135 OM 8135 OM OM1 8135 -0.550000 15.99940
8136 OM 8136 OM OM1 8136 -0.550000 15.99940
8137 OM 8137 OM OM1 8137 -0.550000 15.99940
8138 OM 8138 OM OM1 8138 -0.550000 15.99940
8139 OM 8139 OM OM1 8139 -0.550000 15.99940
8140 OM 8140 OM OM1 8140 -0.550000 15.99940
8141 OM 8141 OM OM1 8141 -0.550000 15.99940
8142 OM 8142 OM OM1 8142 -0.550000 15.99940
8143 OM 8143 OM OM1 8143 -0.550000 15.99940
8144 OM 8144 OM OM1 8144 -0.550000 15.99940
8145 OM 8145 OM OM1 8145 -0.550000 15.99940
8146 OM 8146 OM OM1 8146 -0.550000 15.99940
8147 OM 8147 OM OM1 8147 -0.550000 15.99940
8148 OM 8148 OM OM1 8148 -0.550000 15.99940
8149 OM 8149 OM OM1 8149 -0.550000 15.99940
8150 OM 8150 OM OM1 8150 -0.550000 15.99940
8151 OM 8151 OM OM1 8151 -0.550000 15.99940
8152 OM 8152 OM OM1 8152 -0.550000 15.99940
8153 OM 8153 OM OM1 8153 -0.550000 15.99940
8154 OM 8154 OM OM1 8154 -0.550000 15.99940
8155 OM 8155 OM OM1 8155 -0.550000 15.99940
8156 OM 8156 OM OM1 8156 -0.550000 15.99940
8157 OM 8157 OM OM1 8157 -0.550000 15.99940
8158 OM 8158 OM OM1 8158 -0.550000 15.99940
8159 OM 8159 OM OM1 8159 -0.550000 15.99940
8160 OM 8160 OM OM1 8160 -0.550000 15.99940
8161 OM 8161 OM OM1 8161 -0.550000 15.99940
8162 OM 8162 OM OM1 8162 -0.550000 15.99940
8163 OM 8163 OM OM1 8163 -0.550000 15.99940
8164 OM 8164 OM OM1 8164 -0.550000 15.99940
8165 OM 8165 OM OM1 8165 -0.550000 15.99940
8166 OM 8166 OM OM1 8166 -0.550000 15.99940
8167 OM 8167 OM OM1 8167 -0.550000 15.99940
8168 OM 8168 OM OM1 8168 -0.550000 15.99940
8169 OM 8169 OM OM1 8169 -0.550000 15.99940
8170 OM 8170 OM OM1 8170 -0.550000 15.99940
8171 OM 8171 OM OM1 8171 -0.550000 15.99940
8172 OM 8172 OM OM1 8172 -0.550000 15.99940
8173 OM 8173 OM OM1 8173 -0.550000 15.99940
8174 OM 8174 OM OM1 8174 -0.550000 15.99940
8175 OM 8175 OM OM1 8175 -0.550000 15.99940
8176 OM 8176 OM OM1 8176 -0.550000 15.99940
8177 OM 8177 OM OM1 8177 -0.550000 15.99940
8178 OM 8178 OM OM1 8178 -0.550000 15.99940
8179 OM 8179 OM OM1 8179 -0.550000 15.99940
8180 OM 8180 OM OM1 8180 -0.550000 15.99940
8181 OM 8181 OM OM1 8181 -0.550000 15.99940
8182 OM 8182 OM OM1 8182 -0.550000 15.99940
8183 OM 8183 OM OM1 8183 -0.550000 15.99940
8184 OM 8184 OM OM1 8184 -0.550000 15.99940
8185 OM 8185 OM OM1 8185 -0.550000 15.99940
8186 OM 8186 OM OM1 8186 -0.550000 15.99940
8187 OM 8187 OM OM1 8187 -0.550000 15.99940
8188 OM 8188 OM OM1 8188 -0.550000 15.99940
8189 OM 8189 OM OM1 8189 -0.550000 15.99940
8190 OM 8190 OM OM1 8190 -0.550000 15.99940
8191 OM 8191 OM OM1 8191 -0.550000 15.99940
8192 OM 8192 OM OM1 8192 -0.550000 15.99940
8193 OM 8193 OM OM1 8193 -0.550000 15.99940
8194 OM 8194 OM OM1 8194 -0.550000 15.99940
8195 OM 8195 OM OM1 8195 -0.550000 15.99940
8196 OM 8196 OM OM1 8196 -0.550000 15.99940
8197 OM 8197 OM OM1 8197 -0.550000 15.99940
8198 OM 8198 OM OM1 8198 -0.550000 15.99940
8199 OM 8199 OM OM1 8199 -0.550000 15.99940
8200 OM 8200 OM OM1 8200 -0.550000 15.99940
8201 OM 8201 OM OM1 8201 -0.550000 15.99940
8202 OM 8202 OM OM1 8202 -0.550000 15.99940
8203 OM 8203 OM OM1 8203 -0.550000 15.99940
8204 OM 8204 OM OM1 8204 -0.550000 15.99940
8205 OM 8205 OM OM1 8205 -0.550000 15.99940
8206 OM 8206 OM OM1 8206 -0.550000 15.99940
8207 OM 8207 OM OM1 8207 -0.550000 15.99940
8208 OM 8208 OM OM1 8208 -0.550000 15.99940
8209 OM 8209 OM OM1 8209 -0.550000 15.99940
8210 OM 8210 OM OM1 8210 -0.550000 15.99940
8211 OM 8211 OM OM1 8211 -0.550000 15.99940
8212 OM 8212 OM OM1 8212 -0.550000 15.99940
8213 OM 8213 OM OM1 8213 -0.550000 15.99940
8214 OM 8214 OM OM1 8214 -0.550000 15.99940
8215 OM 8215 OM OM1 8215 -0.550000 15.99940
8216 OM 8216 OM OM1 8216 -0.550000 15.99940
8217 OM 8217 OM OM1 8217 -0.550000 15.99940
8218 OM 8218 OM OM1 8218 -0.550000 15.99940
8219 OM 8219 OM OM1 8219 -0.550000 15.99940
8220 OM 8220 OM OM1 8220 -0.550000 15.99940
8221 OM 8221 OM OM1 8221 -0.550000 15.99940
8222 OM 8222 OM OM1 8222 -0.550000 15.99940
8223 OM 8223 OM OM1 8223 -0.550000 15.99940
8224 OM 8224 OM OM1 8224 -0.550000 15.99940
8225 OM 8225 OM OM1 8225 -0.550000 15.99940
8226 OM 8226 OM OM1 8226 -0.550000 15.99940
8227 OM 8227 OM OM1 8227 -0.550000 15.99940
8228 OM 8228 OM OM1 8228 -0.550000 15.99940
8229 OM 8229 OM OM1 8229 -0.550000 15.99940
8230 OM 8230 OM OM1 8230 -0.550000 15.99940
8231 OM 8231 OM OM1 8231 -0.550000 15.99940
8232 OM 8232 OM OM1 8232 -0.550000 15.99940
8233 OM 8233 OM OM1 8233 -0.550000 15.99940
8234 OM 8234 OM OM1 8234 -0.550000 15.99940
8235 OM 8235 OM OM1 8235 -0.550000 15.99940
8236 OM 8236 OM OM1 8236 -0.550000 15.99940
8237 OM 8237 OM OM1 8237 -0.550000 15.99940
8238 OM 8238 OM OM1 8238 -0.550000 15.99940
8239 OM 8239 OM OM1 8239 -0.550000 15.99940
8240 OM 8240 OM OM1 8240 -0.550000 15.99940
8241 OM 8241 OM OM1 8241 -0.550000 15.99940
8242 OM 8242 OM OM1 8242 -0.550000 15.99940
8243 OM 8243 OM OM1 8243 -0.550000 15.99940
8244 OM 8244 OM OM1 8244 -0.550000 15.99940
8245 OM 8245 OM OM1 8245 -0.550000 15.99940
8246 OM 8246 OM OM1 8246 -0.550000 15.99940
8247 OM 8247 OM OM1 8247 -0.550000 15.99940
8248 OM 8248 OM OM1 8248 -0.550000 15.99940
8249 OM 8249 OM OM1 8249 -0.550000 15.99940
8250 OM 8250 OM OM1 8250 -0.550000 15.99940
8251 OM 8251 OM OM1 8251 -0.550000 15.99940
8252 OM 8252 OM OM1 8252 -0.550000 15.99940
8253 OM 8253 OM OM1 8253 -0.550000 15.99940
8254 OM 8254 OM OM1 8254 -0.550000 15.99940
8255 OM 8255 OM OM1 8255 -0.550000 15.99940
8256 OM 8256 OM OM1 8256 -0.550000 15.99940
8257 OM 8257 OM OM1 8257 -0.550000 15.99940
8258 OM 8258 OM OM1 8258 -0.550000 15.99940
8259 OM 8259 OM OM1 8259 -0.550000 15.99940
8260 OM 8260 OM OM1 8260 -0.550000 15.99940
8261 OM 8261 OM OM1 8261 -0.550000 15.99940
8262 OM 8262 OM OM1 8262 -0.550000 15.99940
8263 OM 8263 OM OM1 8263 -0.550000 15.99940
8264 OM 8264 OM OM1 8264 -0.550000 15.99940
8265 OM 8265 OM OM1 8265 -0.550000 15.99940
8266 OM 8266 OM OM1 8266 -0.550000 15.99940
8267 OM 8267 OM OM1 8267 -0.550000 15.99940
8268 OM 8268 OM OM1 8268 -0.550000 15.99940
8269 OM 8269 OM OM1 8269 -0.550000 15.99940
8270 OM 8270 OM OM1 8270 -0.550000 15.99940
8271 OM 8271 OM OM1 8271 -0.550000 15.99940
8272 OM 8272 OM OM1 8272 -0.550000 15.99940
8273 OM 8273 OM OM1 8273 -0.550000 15.99940
8274 OM 8274 OM OM1 8274 -0.550000 15.99940
8275 OM 8275 OM OM1 8275 -0.550000 15.99940
8276 OM 8276 OM OM1 8276 -0.550000 15.99940
8277 OM 8277 OM OM1 8277 -0.550000 15.99940
8278 OM 8278 OM OM1 8278 -0.550000 15.99940
8279 OM 8279 OM OM1 8279 -0.550000 15.99940
8280 OM 8280 OM OM1 8280 -0.550000 15.99940
8281 OM 8281 OM OM1 8281 -0.550000 15.99940
8282 OM 8282 OM OM1 8282 -0.550000 15.99940
8283 OM 8283 OM OM1 8283 -0.550000 15.99940
8284 OM 8284 OM OM1 8284 -0.550000 15.99940
8285 OM 8285 OM OM1 8285 -0.550000 15.99940
8286 OM 8286 OM OM1 8286 -0.550000 15.99940
8287 OM 8287 OM OM1 8287 -0.550000 15.99940
8288 OM 8288 OM OM1 8288 -0.550000 15.99940
8289 OM 8289 OM OM1 8289 -0.550000 15.99940
8290 OM 8290 OM OM1 8290 -0.550000 15.99940
8291 OM 8291 OM OM1 8291 -0.550000 15.99940
8292 OM 8292 OM OM1 8292 -0.550000 15.99940
8293 OM 8293 OM OM1 8293 -0.550000 15.99940
8294 OM 8294 OM OM1 8294 -0.550000 15.99940
8295 OM 8295 OM OM1 8295 -0.550000 15.99940
8296 OM 8296 OM OM1 8296 -0.550000 15.99940
8297 OM 8297 OM OM1 8297 -0.550000 15.99940
8298 OM 8298 OM OM1 8298 -0.550000 15.99940
8299 OM 8299 OM OM1 8299 -0.550000 15.99940
8300 OM 8300 OM OM1 8300 -0.550000 15.99940
8301 OM 8301 OM OM1 8301 -0.550000 15.99940
8302 OM 8302 OM OM1 8302 -0.550000 15.99940
8303 OM 8303 OM OM1 8303 -0.550000 15.99940
8304 OM 8304 OM OM1 8304 -0.550000 15.99940
8305 OM 8305 OM OM1 8305 -0.550000 15.99940
8306 OM 8306 OM OM1 8306 -0.550000 15.99940
8307 OM 8307 OM OM1 8307 -0.550000 15.99940
8308 OM 8308 OM OM1 8308 -0.550000 15.99940
8309 OM 8309 OM OM1 8309 -0.550000 15.99940
8310 OM 8310 OM OM1 8310 -0.550000 15.99940
8311 OM 8311 OM OM1 8311 -0.550000 15.99940
8312 OM 8312 OM OM1 8312 -0.550000 15.99940
8313 OM 8313 OM OM1 8313 -0.550000 15.99940
8314 OM 8314 OM OM1 8314 -0.550000 15.99940
8315 OM 8315 OM OM1 8315 -0.550000 15.99940
8316 OM 8316 OM OM1 8316 -0.550000 15.99940
8317 OM 8317 OM OM1 8317 -0.550000 15.99940
8318 OM 8318 OM OM1 8318 -0.550000 15.99940
8319 OM 8319 OM OM1 8319 -0.550000 15.99940
8320 OM 8320 OM OM1 8320 -0.550000 15.99940
8321 OM 8321 OM OM1 8321 -0.550000 15.99940
8322 OM 8322 OM OM1 8322 -0.550000 15.99940
8323 OM 8323 OM OM1 8323 -0.550000 15.99940
8324 OM 8324 OM OM1 8324 -0.550000 15.99940
8325 OM 8325 OM OM1 8325 -0.550000 15.99940
8326 OM 8326 OM OM1 8326 -0.550000 15.99940
8327 OM 8327 OM OM1 8327 -0.550000 15.99940
8328 OM 8328 OM OM1 8328 -0.550000 15.99940
8329 OM 8329 OM OM1 8329 -0.550000 15.99940
8330 OM 8330 OM OM1 8330 -0.550000 15.99940
8331 OM 8331 OM OM1 8331 -0.550000 15.99940
8332 OM 8332 OM OM1 8332 -0.550000 15.99940
8333 OM 8333 OM OM1 8333 -0.550000 15.99940
8334 OM 8334 OM OM1 8334 -0.550000 15.99940
8335 OM 8335 OM OM1 8335 -0.550000 15.99940
8336 OM 8336 OM OM1 8336 -0.550000 15.99940
8337 OM 8337 OM OM1 8337 -0.550000 15.99940
8338 OM 8338 OM OM1 8338 -0.550000 15.99940
8339 OM 8339 OM OM1 8339 -0.550000 15.99940
8340 OM 8340 OM OM1 8340 -0.550000 15.99940
8341 OM 8341 OM OM1 8341 -0.550000 15.99940
8342 OM 8342 OM OM1 8342 -0.550000 15.99940
8343 OM 8343 OM OM1 8343 -0.550000 15.99940
8344 OM 8344 OM OM1 8344 -0.550000 15.99940
8345 OM 8345 OM OM1 8345 -0.550000 15.99940
8346 OM 8346 OM OM1 8346 -0.550000 15.99940
8347 OM 8347 OM OM1 8347 -0.550000 15.99940
8348 OM 8348 OM OM1 8348 -0.550000 15.99940
8349 OM 8349 OM OM1 8349 -0.550000 15.99940
8350 OM 8350 OM OM1 8350 -0.550000 15.99940
8351 OM 8351 OM OM1 8351 -0.550000 15.99940
8352 OM 8352 OM OM1 8352 -0.550000 15.99940
8353 OM 8353 OM OM1 8353 -0.550000 15.99940
8354 OM 8354 OM OM1 8354 -0.550000 15.99940
8355 OM 8355 OM OM1 8355 -0.550000 15.99940
8356 OM 8356 OM OM1 8356 -0.550000 15.99940
8357 OM 8357 OM OM1 8357 -0.550000 15.99940
8358 OM 8358 OM OM1 8358 -0.550000 15.99940
8359 OM 8359 OM OM1 8359 -0.550000 15.99940
8360 OM 8360 OM OM1 8360 -0.550000 15.99940
8361 OM 8361 OM OM1 8361 -0.550000 15.99940
8362 OM 8362 OM OM1 8362 -0.550000 15.99940
8363 OM 8363 OM OM1 8363 -0.550000 15.99940
8364 OM 8364 OM OM1 8364 -0.550000 15.99940
8365 OM 8365 OM OM1 8365 -0.550000 15.99940
8366 OM 8366 OM OM1 8366 -0.550000 15.99940
8367 OM 8367 OM OM1 8367 -0.550000 15.99940
8368 OM 8368 OM OM1 8368 -0.550000 15.99940
8369 OM 8369 OM OM1 8369 -0.550000 15.99940
8370 OM 8370 OM OM1 8370 -0.550000 15.99940
8371 OM 8371 OM OM1 8371 -0.550000 15.99940
8372 OM 8372 OM OM1 8372 -0.550000 15.99940
8373 OM 8373 OM OM1 8373 -0.550000 15.99940
8374 OM 8374 OM OM1 8374 -0.550000 15.99940
8375 OM 8375 OM OM1 8375 -0.550000 15.99940
8376 OM 8376 OM OM1 8376 -0.550000 15.99940
8377 OM 8377 OM OM1 8377 -0.550000 15.99940
8378 OM 8378 OM OM1 8378 -0.550000 15.99940
8379 OM 8379 OM OM1 8379 -0.550000 15.99940
8380 OM 8380 OM OM1 8380 -0.550000 15.99940
8381 OM 8381 OM OM1 8381 -0.550000 15.99940
8382 OM 8382 OM OM1 8382 -0.550000 15.99940
8383 OM 8383 OM OM1 8383 -0.550000 15.99940
8384 OM 8384 OM OM1 8384 -0.550000 15.99940
8385 OM 8385 OM OM1 8385 -0.550000 15.99940
8386 OM 8386 OM OM1 8386 -0.550000 15.99940
8387 OM 8387 OM OM1 8387 -0.550000 15.99940
8388 OM 8388 OM OM1 8388 -0.550000 15.99940
8389 OM 8389 OM OM1 8389 -0.550000 15.99940
8390 OM 8390 OM OM1 8390 -0.550000 15.99940
8391 OM 8391 OM OM1 8391 -0.550000 15.99940
8392 OM 8392 OM OM1 8392 -0.550000 15.99940
8393 OM 8393 OM OM1 8393 -0.550000 15.99940
8394 OM 8394 OM OM1 8394 -0.550000 15.99940
8395 OM 8395 OM OM1 8395 -0.550000 15.99940
8396 OM 8396 OM OM1 8396 -0.550000 15.99940
8397 OM 8397 OM OM1 8397 -0.550000 15.99940
8398 OM 8398 OM OM1 8398 -0.550000 15.99940
8399 OM 8399 OM OM1 8399 -0.550000 15.99940
8400 OM 8400 OM OM1 8400 -0.550000 15.99940
8401 OM 8401 OM OM1 8401 -0.550000 15.99940
8402 OM 8402 OM OM1 8402 -0.550000 15.99940
8403 OM 8403 OM OM1 8403 -0.550000 15.99940
8404 OM 8404 OM OM1 8404 -0.550000 15.99940
8405 OM 8405 OM OM1 8405 -0.550000 15.99940
8406 OM 8406 OM OM1 8406 -0.550000 15.99940
8407 OM 8407 OM OM1 8407 -0.550000 15.99940
8408 OM 8408 OM OM1 8408 -0.550000 15.99940
8409 OM 8409 OM OM1 8409 -0.550000 15.99940
8410 OM 8410 OM OM1 8410 -0.550000 15.99940
8411 OM 8411 OM OM1 8411 -0.550000 15.99940
8412 OM 8412 OM OM1 8412 -0.550000 15.99940
8413 OM 8413 OM OM1 8413 -0.550000 15.99940
8414 OM 8414 OM OM1 8414 -0.550000 15.99940
8415 OM 8415 OM OM1 8415 -0.550000 15.99940
8416 OM 8416 OM OM1 8416 -0.550000 15.99940
8417 OM 8417 OM OM1 8417 -0.550000 15.99940
8418 OM 8418 OM OM1 8418 -0.550000 15.99940
8419 OM 8419 OM OM1 8419 -0.550000 15.99940
8420 OM 8420 OM OM1 8420 -0.550000 15.99940
8421 OM 8421 OM OM1 8421 -0.550000 15.99940
8422 OM 8422 OM OM1 8422 -0.550000 15.99940
8423 OM 8423 OM OM1 8423 -0.550000 15.99940
8424 OM 8424 OM OM1 8424 -0.550000 15.99940
8425 OM 8425 OM OM1 8425 -0.550000 15.99940
8426 OM 8426 OM OM1 8426 -0.550000 15.99940
8427 OM 8427 OM OM1 8427 -0.550000 15.99940
8428 OM 8428 OM OM1 8428 -0.550000 15.99940
8429 OM 8429 OM OM1 8429 -0.550000 15.99940
8430 OM 8430 OM OM1 8430 -0.550000 15.99940
8431 OM 8431 OM OM1 8431 -0.550000 15.99940
8432 OM 8432 OM OM1 8432 -0.550000 15.99940
8433 OM 8433 OM OM1 8433 -0.550000 15.99940
8434 OM 8434 OM OM1 8434 -0.550000 15.99940
8435 OM 8435 OM OM1 8435 -0.550000 15.99940
8436 OM 8436 OM OM1 8436 -0.550000 15.99940
8437 OM 8437 OM OM1 8437 -0.550000 15.99940
8438 OM 8438 OM OM1 8438 -0.550000 15.99940
8439 OM 8439 OM OM1 8439 -0.550000 15.99940
8440 OM 8440 OM OM1 8440 -0.550000 15.99940
8441 OM 8441 OM OM1 8441 -0.550000 15.99940
8442 OM 8442 OM OM1 8442 -0.550000 15.99940
8443 OM 8443 OM OM1 8443 -0.550000 15.99940
8444 OM 8444 OM OM1 8444 -0.550000 15.99940
8445 OM 8445 OM OM1 8445 -0.550000 15.99940
8446 OM 8446 OM OM1 8446 -0.550000 15.99940
8447 OM 8447 OM OM1 8447 -0.550000 15.99940
8448 OM 8448 OM OM1 8448 -0.550000 15.99940
8449 OM 8449 OM OM1 8449 -0.550000 15.99940
8450 OM 8450 OM OM1 8450 -0.550000 15.99940
8451 OM 8451 OM OM1 8451 -0.550000 15.99940
8452 OM 8452 OM OM1 8452 -0.550000 15.99940
8453 OM 8453 OM OM1 8453 -0.550000 15.99940
8454 OM 8454 OM OM1 8454 -0.550000 15.99940
8455 OM 8455 OM OM1 8455 -0.550000 15.99940
8456 OM 8456 OM OM1 8456 -0.550000 15.99940
8457 OM 8457 OM OM1 8457 -0.550000 15.99940
8458 OM 8458 OM OM1 8458 -0.550000 15.99940
8459 OM 8459 OM OM1 8459 -0.550000 15.99940
8460 OM 8460 OM OM1 8460 -0.550000 15.99940
8461 OM 8461 OM OM1 8461 -0.550000 15.99940
8462 OM 8462 OM OM1 8462 -0.550000 15.99940
8463 OM 8463 OM OM1 8463 -0.550000 15.99940
8464 OM 8464 OM OM1 8464 -0.550000 15.99940
8465 OM 8465 OM OM1 8465 -0.550000 15.99940
8466 OM 8466 OM OM1 8466 -0.550000 15.99940
8467 OM 8467 OM OM1 8467 -0.550000 15.99940
8468 OM 8468 OM OM1 8468 -0.550000 15.99940
8469 OM 8469 OM OM1 8469 -0.550000 15.99940
8470 OM 8470 OM OM1 8470 -0.550000 15.99940
8471 OM 8471 OM OM1 8471 -0.550000 15.99940
8472 OM 8472 OM OM1 8472 -0.550000 15.99940
8473 OM 8473 OM OM1 8473 -0.550000 15.99940
8474 OM 8474 OM OM1 8474 -0.550000 15.99940
8475 OM 8475 OM OM1 8475 -0.550000 15.99940
8476 OM 8476 OM OM1 8476 -0.550000 15.99940
8477 OM 8477 OM OM1 8477 -0.550000 15.99940
8478 OM 8478 OM OM1 8478 -0.550000 15.99940
8479 OM 8479 OM OM1 8479 -0.550000 15.99940
8480 OM 8480 OM OM1 8480 -0.550000 15.99940
8481 OM 8481 OM OM1 8481 -0.550000 15.99940
8482 OM 8482 OM OM1 8482 -0.550000 15.99940
8483 OM 8483 OM OM1 8483 -0.550000 15.99940
8484 OM 8484 OM OM1 8484 -0.550000 15.99940
8485 OM 8485 OM OM1 8485 -0.550000 15.99940
8486 OM 8486 OM OM1 8486 -0.550000 15.99940
8487 OM 8487 OM OM1 8487 -0.550000 15.99940
8488 OM 8488 OM OM1 8488 -0.550000 15.99940
8489 OM 8489 OM OM1 8489 -0.550000 15.99940
8490 OM 8490 OM OM1 8490 -0.550000 15.99940
8491 OM 8491 OM OM1 8491 -0.550000 15.99940
8492 OM 8492 OM OM1 8492 -0.550000 15.99940
8493 OM 8493 OM OM1 8493 -0.550000 15.99940
8494 OM 8494 OM OM1 8494 -0.550000 15.99940
8495 OM 8495 OM OM1 8495 -0.550000 15.99940
8496 OM 8496 OM OM1 8496 -0.550000 15.99940
8497 OM 8497 OM OM1 8497 -0.550000 15.99940
8498 OM 8498 OM OM1 8498 -0.550000 15.99940
8499 OM 8499 OM OM1 8499 -0.550000 15.99940
8500 OM 8500 OM OM1 8500 -0.550000 15.99940
8501 OM 8501 OM OM1 8501 -0.550000 15.99940
8502 OM 8502 OM OM1 8502 -0.550000 15.99940
8503 OM 8503 OM OM1 8503 -0.550000 15.99940
8504 OM 8504 OM OM1 8504 -0.550000 15.99940
8505 OM 8505 OM OM1 8505 -0.550000 15.99940
8506 OM 8506 OM OM1 8506 -0.550000 15.99940
8507 OM 8507 OM OM1 8507 -0.550000 15.99940
8508 OM 8508 OM OM1 8508 -0.550000 15.99940
8509 OM 8509 OM OM1 8509 -0.550000 15.99940
8510 OM 8510 OM OM1 8510 -0.550000 15.99940
8511 OM 8511 OM OM1 8511 -0.550000 15.99940
8512 OM 8512 OM OM1 8512 -0.550000 15.99940
8513 OM 8513 OM OM1 8513 -0.550000 15.99940
8514 OM 8514 OM OM1 8514 -0.550000 15.99940
8515 OM 8515 OM OM1 8515 -0.550000 15.99940
8516 OM 8516 OM OM1 8516 -0.550000 15.99940
8517 OM 8517 OM OM1 8517 -0.550000 15.99940
8518 OM 8518 OM OM1 8518 -0.550000 15.99940
8519 OM 8519 OM OM1 8519 -0.550000 15.99940
8520 OM 8520 OM OM1 8520 -0.550000 15.99940
8521 OM 8521 OM OM1 8521 -0.550000 15.99940
8522 OM 8522 OM OM1 8522 -0.550000 15.99940
8523 OM 8523 OM OM1 8523 -0.550000 15.99940
8524 OM 8524 OM OM1 8524 -0.550000 15.99940
8525 OM 8525 OM OM1 8525 -0.550000 15.99940
8526 OM 8526 OM OM1 8526 -0.550000 15.99940
8527 OM 8527 OM OM1 8527 -0.550000 15.99940
8528 OM 8528 OM OM1 8528 -0.550000 15.99940
8529 OM 8529 OM OM1 8529 -0.550000 15.99940
8530 OM 8530 OM OM1 8530 -0.550000 15.99940
8531 OM 8531 OM OM1 8531 -0.550000 15.99940
8532 OM 8532 OM OM1 8532 -0.550000 15.99940
8533 OM 8533 OM OM1 8533 -0.550000 15.99940
8534 OM 8534 OM OM1 8534 -0.550000 15.99940
8535 OM 8535 OM OM1 8535 -0.550000 15.99940
8536 OM 8536 OM OM1 8536 -0.550000 15.99940
8537 OM 8537 OM OM1 8537 -0.550000 15.99940
8538 OM 8538 OM OM1 8538 -0.550000 15.99940
8539 OM 8539 OM OM1 8539 -0.550000 15.99940
8540 OM 8540 OM OM1 8540 -0.550000 15.99940
8541 OM 8541 OM OM1 8541 -0.550000 15.99940
8542 OM 8542 OM OM1 8542 -0.550000 15.99940
8543 OM 8543 OM OM1 8543 -0.550000 15.99940
8544 OM 8544 OM OM1 8544 -0.550000 15.99940
8545 OM 8545 OM OM1 8545 -0.550000 15.99940
8546 OM 8546 OM OM1 8546 -0.550000 15.99940
8547 OM 8547 OM OM1 8547 -0.550000 15.99940
8548 OM 8548 OM OM1 8548 -0.550000 15.99940
8549 OM 8549 OM OM1 8549 -0.550000 15.99940
8550 OM 8550 OM OM1 8550 -0.550000 15.99940
8551 OM 8551 OM OM1 8551 -0.550000 15.99940
8552 OM 8552 OM OM1 8552 -0.550000 15.99940
8553 OM 8553 OM OM1 8553 -0.550000 15.99940
8554 OM 8554 OM OM1 8554 -0.550000 15.99940
8555 OM 8555 OM OM1 8555 -0.550000 15.99940
8556 OM 8556 OM OM1 8556 -0.550000 15.99940
8557 OM 8557 OM OM1 8557 -0.550000 15.99940
8558 OM 8558 OM OM1 8558 -0.550000 15.99940
8559 OM 8559 OM OM1 8559 -0.550000 15.99940
8560 OM 8560 OM OM1 8560 -0.550000 15.99940
8561 OM 8561 OM OM1 8561 -0.550000 15.99940
8562 OM 8562 OM OM1 8562 -0.550000 15.99940
8563 OM 8563 OM OM1 8563 -0.550000 15.99940
8564 OM 8564 OM OM1 8564 -0.550000 15.99940
8565 OM 8565 OM OM1 8565 -0.550000 15.99940
8566 OM 8566 OM OM1 8566 -0.550000 15.99940
8567 OM 8567 OM OM1 8567 -0.550000 15.99940
8568 OM 8568 OM OM1 8568 -0.550000 15.99940
8569 OM 8569 OM OM1 8569 -0.550000 15.99940
8570 OM 8570 OM OM1 8570 -0.550000 15.99940
8571 OM 8571 OM OM1 8571 -0.550000 15.99940
8572 OM 8572 OM OM1 8572 -0.550000 15.99940
8573 OM 8573 OM OM1 8573 -0.550000 15.99940
8574 OM 8574 OM OM1 8574 -0.550000 15.99940
8575 OM 8575 OM OM1 8575 -0.550000 15.99940
8576 OM 8576 OM OM1 8576 -0.550000 15.99940
8577 OM 8577 OM OM1 8577 -0.550000 15.99940
8578 OM 8578 OM OM1 8578 -0.550000 15.99940
8579 OM 8579 OM OM1 8579 -0.550000 15.99940
8580 OM 8580 OM OM1 8580 -0.550000 15.99940
8581 OM 8581 OM OM1 8581 -0.550000 15.99940
8582 OM 8582 OM OM1 8582 -0.550000 15.99940
8583 OM 8583 OM OM1 8583 -0.550000 15.99940
8584 OM 8584 OM OM1 8584 -0.550000 15.99940
8585 OM 8585 OM OM1 8585 -0.550000 15.99940
8586 OM 8586 OM OM1 8586 -0.550000 15.99940
8587 OM 8587 OM OM1 8587 -0.550000 15.99940
8588 OM 8588 OM OM1 8588 -0.550000 15.99940
8589 OM 8589 OM OM1 8589 -0.550000 15.99940
8590 OM 8590 OM OM1 8590 -0.550000 15.99940
8591 OM 8591 OM OM1 8591 -0.550000 15.99940
8592 OM 8592 OM OM1 8592 -0.550000 15.99940
8593 OM 8593 OM OM1 8593 -0.550000 15.99940
8594 OM 8594 OM OM1 8594 -0.550000 15.99940
8595 OM 8595 OM OM1 8595 -0.550000 15.99940
8596 OM 8596 OM OM1 8596 -0.550000 15.99940
8597 OM 8597 OM OM1 8597 -0.550000 15.99940
8598 OM 8598 OM OM1 8598 -0.550000 15.99940
8599 OM 8599 OM OM1 8599 -0.550000 15.99940
8600 OM 8600 OM OM1 8600 -0.550000 15.99940
8601 OM 8601 OM OM1 8601 -0.550000 15.99940
8602 OM 8602 OM OM1 8602 -0.550000 15.99940
8603 OM 8603 OM OM1 8603 -0.550000 15.99940
8604 OM 8604 OM OM1 8604 -0.550000 15.99940
8605 OM 8605 OM OM1 8605 -0.550000 15.99940
8606 OM 8606 OM OM1 8606 -0.550000 15.99940
8607 OM 8607 OM OM1 8607 -0.550000 15.99940
8608 OM 8608 OM OM1 8608 -0.550000 15.99940
8609 OM 8609 OM OM1 8609 -0.550000 15.99940
8610 OM 8610 OM OM1 8610 -0.550000 15.99940
8611 OM 8611 OM OM1 8611 -0.550000 15.99940
8612 OM 8612 OM OM1 8612 -0.550000 15.99940
8613 OM 8613 OM OM1 8613 -0.550000 15.99940
8614 OM 8614 OM OM1 8614 -0.550000 15.99940
8615 OM 8615 OM OM1 8615 -0.550000 15.99940
8616 OM 8616 OM OM1 8616 -0.550000 15.99940
8617 OM 8617 OM OM1 8617 -0.550000 15.99940
8618 OM 8618 OM OM1 8618 -0.550000 15.99940
8619 OM 8619 OM OM1 8619 -0.550000 15.99940
8620 OM 8620 OM OM1 8620 -0.550000 15.99940
8621 OM 8621 OM OM1 8621 -0.550000 15.99940
8622 OM 8622 OM OM1 8622 -0.550000 15.99940
8623 OM 8623 OM OM1 8623 -0.550000 15.99940
8624 OM 8624 OM OM1 8624 -0.550000 15.99940
8625 OM 8625 OM OM1 8625 -0.550000 15.99940
8626 OM 8626 OM OM1 8626 -0.550000 15.99940
8627 OM 8627 OM OM1 8627 -0.550000 15.99940
8628 OM 8628 OM OM1 8628 -0.550000 15.99940
8629 OM 8629 OM OM1 8629 -0.550000 15.99940
8630 OM 8630 OM OM1 8630 -0.550000 15.99940
8631 OM 8631 OM OM1 8631 -0.550000 15.99940
8632 OM 8632 OM OM1 8632 -0.550000 15.99940
8633 OM 8633 OM OM1 8633 -0.550000 15.99940
8634 OM 8634 OM OM1 8634 -0.550000 15.99940
8635 OM 8635 OM OM1 8635 -0.550000 15.99940
8636 OM 8636 OM OM1 8636 -0.550000 15.99940
8637 OM 8637 OM OM1 8637 -0.550000 15.99940
8638 OM 8638 OM OM1 8638 -0.550000 15.99940
8639 OM 8639 OM OM1 8639 -0.550000 15.99940
8640 OM 8640 OM OM1 8640 -0.550000 15.99940
8641 OM 8641 OM OM1 8641 -0.550000 15.99940
8642 OM 8642 OM OM1 8642 -0.550000 15.99940
8643 OM 8643 OM OM1 8643 -0.550000 15.99940
8644 OM 8644 OM OM1 8644 -0.550000 15.99940
8645 OM 8645 OM OM1 8645 -0.550000 15.99940
8646 OM 8646 OM OM1 8646 -0.550000 15.99940
8647 OM 8647 OM OM1 8647 -0.550000 15.99940
8648 OM 8648 OM OM1 8648 -0.550000 15.99940
8649 OM 8649 OM OM1 8649 -0.550000 15.99940
8650 OM 8650 OM OM1 8650 -0.550000 15.99940
8651 OM 8651 OM OM1 8651 -0.550000 15.99940
8652 OM 8652 OM OM1 8652 -0.550000 15.99940
8653 OM 8653 OM OM1 8653 -0.550000 15.99940
8654 OM 8654 OM OM1 8654 -0.550000 15.99940
8655 OM 8655 OM OM1 8655 -0.550000 15.99940
8656 OM 8656 OM OM1 8656 -0.550000 15.99940
8657 OM 8657 OM OM1 8657 -0.550000 15.99940
8658 OM 8658 OM OM1 8658 -0.550000 15.99940
8659 OM 8659 OM OM1 8659 -0.550000 15.99940
8660 OM 8660 OM OM1 8660 -0.550000 15.99940
8661 OM 8661 OM OM1 8661 -0.550000 15.99940
8662 OM 8662 OM OM1 8662 -0.550000 15.99940
8663 OM 8663 OM OM1 8663 -0.550000 15.99940
8664 OM 8664 OM OM1 8664 -0.550000 15.99940
8665 OM 8665 OM OM1 8665 -0.550000 15.99940
8666 OM 8666 OM OM1 8666 -0.550000 15.99940
8667 OM 8667 OM OM1 8667 -0.550000 15.99940
8668 OM 8668 OM OM1 8668 -0.550000 15.99940
8669 OM 8669 OM OM1 8669 -0.550000 15.99940
8670 OM 8670 OM OM1 8670 -0.550000 15.99940
8671 OM 8671 OM OM1 8671 -0.550000 15.99940
8672 OM 8672 OM OM1 8672 -0.550000 15.99940
8673 OM 8673 OM OM1 8673 -0.550000 15.99940
8674 OM 8674 OM OM1 8674 -0.550000 15.99940
8675 OM 8675 OM OM1 8675 -0.550000 15.99940
8676 OM 8676 OM OM1 8676 -0.550000 15.99940
8677 OM 8677 OM OM1 8677 -0.550000 15.99940
8678 OM 8678 OM OM1 8678 -0.550000 15.99940
8679 OM 8679 OM OM1 8679 -0.550000 15.99940
8680 OM 8680 OM OM1 8680 -0.550000 15.99940
8681 OM 8681 OM OM1 8681 -0.550000 15.99940
8682 OM 8682 OM OM1 8682 -0.550000 15.99940
8683 OM 8683 OM OM1 8683 -0.550000 15.99940
8684 OM 8684 OM OM1 8684 -0.550000 15.99940
8685 OM 8685 OM OM1 8685 -0.550000 15.99940
8686 OM 8686 OM OM1 8686 -0.550000 15.99940
8687 OM 8687 OM OM1 8687 -0.550000 15.99940
8688 OM 8688 OM OM1 8688 -0.550000 15.99940
8689 OM 8689 OM OM1 8689 -0.550000 15.99940
8690 OM 8690 OM OM1 8690 -0.550000 15.99940
8691 OM 8691 OM OM1 8691 -0.550000 15.99940
8692 OM 8692 OM OM1 8692 -0.550000 15.99940
8693 OM 8693 OM OM1 8693 -0.550000 15.99940
8694 OM 8694 OM OM1 8694 -0.550000 15.99940
8695 OM 8695 OM OM1 8695 -0.550000 15.99940
8696 OM 8696 OM OM1 8696 -0.550000 15.99940
8697 OM 8697 OM OM1 8697 -0.550000 15.99940
8698 OM 8698 OM OM1 8698 -0.550000 15.99940
8699 OM 8699 OM OM1 8699 -0.550000 15.99940
8700 OM 8700 OM OM1 8700 -0.550000 15.99940
8701 OM 8701 OM OM1 8701 -0.550000 15.99940
8702 OM 8702 OM OM1 8702 -0.550000 15.99940
8703 OM 8703 OM OM1 8703 -0.550000 15.99940
8704 OM 8704 OM OM1 8704 -0.550000 15.99940
8705 OM 8705 OM OM1 8705 -0.550000 15.99940
8706 OM 8706 OM OM1 8706 -0.550000 15.99940
8707 OM 8707 OM OM1 8707 -0.550000 15.99940
8708 OM 8708 OM OM1 8708 -0.550000 15.99940
8709 OM 8709 OM OM1 8709 -0.550000 15.99940
8710 OM 8710 OM OM1 8710 -0.550000 15.99940
8711 OM 8711 OM OM1 8711 -0.550000 15.99940
8712 OM 8712 OM OM1 8712 -0.550000 15.99940
8713 OM 8713 OM OM1 8713 -0.550000 15.99940
8714 OM 8714 OM OM1 8714 -0.550000 15.99940
8715 OM 8715 OM OM1 8715 -0.550000 15.99940
8716 OM 8716 OM OM1 8716 -0.550000 15.99940
8717 OM 8717 OM OM1 8717 -0.550000 15.99940
8718 OM 8718 OM OM1 8718 -0.550000 15.99940
8719 OM 8719 OM OM1 8719 -0.550000 15.99940
8720 OM 8720 OM OM1 8720 -0.550000 15.99940
8721 OM 8721 OM OM1 8721 -0.550000 15.99940
8722 OM 8722 OM OM1 8722 -0.550000 15.99940
8723 OM 8723 OM OM1 8723 -0.550000 15.99940
8724 OM 8724 OM OM1 8724 -0.550000 15.99940
8725 OM 8725 OM OM1 8725 -0.550000 15.99940
8726 OM 8726 OM OM1 8726 -0.550000 15.99940
8727 OM 8727 OM OM1 8727 -0.550000 15.99940
8728 OM 8728 OM OM1 8728 -0.550000 15.99940
8729 OM 8729 OM OM1 8729 -0.550000 15.99940
8730 OM 8730 OM OM1 8730 -0.550000 15.99940
8731 OM 8731 OM OM1 8731 -0.550000 15.99940
8732 OM 8732 OM OM1 8732 -0.550000 15.99940
8733 OM 8733 OM OM1 8733 -0.550000 15.99940
8734 OM 8734 OM OM1 8734 -0.550000 15.99940
8735 OM 8735 OM OM1 8735 -0.550000 15.99940
8736 OM 8736 OM OM1 8736 -0.550000 15.99940
8737 OM 8737 OM OM1 8737 -0.550000 15.99940
8738 OM 8738 OM OM1 8738 -0.550000 15.99940
8739 OM 8739 OM OM1 8739 -0.550000 15.99940
8740 OM 8740 OM OM1 8740 -0.550000 15.99940
8741 OM 8741 OM OM1 8741 -0.550000 15.99940
8742 OM 8742 OM OM1 8742 -0.550000 15.99940
8743 OM 8743 OM OM1 8743 -0.550000 15.99940
8744 OM 8744 OM OM1 8744 -0.550000 15.99940
8745 OM 8745 OM OM1 8745 -0.550000 15.99940
8746 OM 8746 OM OM1 8746 -0.550000 15.99940
8747 OM 8747 OM OM1 8747 -0.550000 15.99940
8748 OM 8748 OM OM1 8748 -0.550000 15.99940
8749 OM 8749 OM OM1 8749 -0.550000 15.99940
8750 OM 8750 OM OM1 8750 -0.550000 15.99940
8751 OM 8751 OM OM1 8751 -0.550000 15.99940
8752 OM 8752 OM OM1 8752 -0.550000 15.99940
8753 OM 8753 OM OM1 8753 -0.550000 15.99940
8754 OM 8754 OM OM1 8754 -0.550000 15.99940
8755 OM 8755 OM OM1 8755 -0.550000 15.99940
8756 OM 8756 OM OM1 8756 -0.550000 15.99940
8757 OM 8757 OM OM1 8757 -0.550000 15.99940
8758 OM 8758 OM OM1 8758 -0.550000 15.99940
8759 OM 8759 OM OM1 8759 -0.550000 15.99940
8760 OM 8760 OM OM1 8760 -0.550000 15.99940
8761 OM 8761 OM OM1 8761 -0.550000 15.99940
8762 OM 8762 OM OM1 8762 -0.550000 15.99940
8763 OM 8763 OM OM1 8763 -0.550000 15.99940
8764 OM 8764 OM OM1 8764 -0.550000 15.99940
8765 OM 8765 OM OM1 8765 -0.550000 15.99940
8766 OM 8766 OM OM1 8766 -0.550000 15.99940
8767 OM 8767 OM OM1 8767 -0.550000 15.99940
8768 OM 8768 OM OM1 8768 -0.550000 15.99940
8769 OM 8769 OM OM1 8769 -0.550000 15.99940
8770 OM 8770 OM OM1 8770 -0.550000 15.99940
8771 OM 8771 OM OM1 8771 -0.550000 15.99940
8772 OM 8772 OM OM1 8772 -0.550000 15.99940
8773 OM 8773 OM OM1 8773 -0.550000 15.99940
8774 OM 8774 OM OM1 8774 -0.550000 15.99940
8775 OM 8775 OM OM1 8775 -0.550000 15.99940
8776 OM 8776 OM OM1 8776 -0.550000 15.99940
8777 OM 8777 OM OM1 8777 -0.550000 15.99940
8778 OM 8778 OM OM1 8778 -0.550000 15.99940
8779 OM 8779 OM OM1 8779 -0.550000 15.99940
8780 OM 8780 OM OM1 8780 -0.550000 15.99940
8781 OM 8781 OM OM1 8781 -0.550000 15.99940
8782 OM 8782 OM OM1 8782 -0.550000 15.99940
8783 OM 8783 OM OM1 8783 -0.550000 15.99940
8784 OM 8784 OM OM1 8784 -0.550000 15.99940
8785 OM 8785 OM OM1 8785 -0.550000 15.99940
8786 OM 8786 OM OM1 8786 -0.550000 15.99940
8787 OM 8787 OM OM1 8787 -0.550000 15.99940
8788 OM 8788 OM OM1 8788 -0.550000 15.99940
8789 OM 8789 OM OM1 8789 -0.550000 15.99940
8790 OM 8790 OM OM1 8790 -0.550000 15.99940
8791 OM 8791 OM OM1 8791 -0.550000 15.99940
8792 OM 8792 OM OM1 8792 -0.550000 15.99940
8793 OM 8793 OM OM1 8793 -0.550000 15.99940
8794 OM 8794 OM OM1 8794 -0.550000 15.99940
8795 OM 8795 OM OM1 8795 -0.550000 15.99940
8796 OM 8796 OM OM1 8796 -0.550000 15.99940
8797 OM 8797 OM OM1 8797 -0.550000 15.99940
8798 OM 8798 OM OM1 8798 -0.550000 15.99940
8799 OM 8799 OM OM1 8799 -0.550000 15.99940
8800 OM 8800 OM OM1 8800 -0.550000 15.99940
8801 OM 8801 OM OM1 8801 -0.550000 15.99940
8802 OM 8802 OM OM1 8802 -0.550000 15.99940
8803 OM 8803 OM OM1 8803 -0.550000 15.99940
8804 OM 8804 OM OM1 8804 -0.550000 15.99940
8805 OM 8805 OM OM1 8805 -0.550000 15.99940
8806 OM 8806 OM OM1 8806 -0.550000 15.99940
8807 OM 8807 OM OM1 8807 -0.550000 15.99940
8808 OM 8808 OM OM1 8808 -0.550000 15.99940
8809 OM 8809 OM OM1 8809 -0.550000 15.99940
8810 OM 8810 OM OM1 8810 -0.550000 15.99940
8811 OM 8811 OM OM1 8811 -0.550000 15.99940
8812 OM 8812 OM OM1 8812 -0.550000 15.99940
8813 OM 8813 OM OM1 8813 -0.550000 15.99940
8814 OM 8814 OM OM1 8814 -0.550000 15.99940
8815 OM 8815 OM OM1 8815 -0.550000 15.99940
8816 OM 8816 OM OM1 8816 -0.550000 15.99940
8817 OM 8817 OM OM1 8817 -0.550000 15.99940
8818 OM 8818 OM OM1 8818 -0.550000 15.99940
8819 OM 8819 OM OM1 8819 -0.550000 15.99940
8820 OM 8820 OM OM1 8820 -0.550000 15.99940
8821 OM 8821 OM OM1 8821 -0.550000 15.99940
8822 OM 8822 OM OM1 8822 -0.550000 15.99940
8823 OM 8823 OM OM1 8823 -0.550000 15.99940
8824 OM 8824 OM OM1 8824 -0.550000 15.99940
8825 OM 8825 OM OM1 8825 -0.550000 15.99940
8826 OM 8826 OM OM1 8826 -0.550000 15.99940
8827 OM 8827 OM OM1 8827 -0.550000 15.99940
8828 OM 8828 OM OM1 8828 -0.550000 15.99940
8829 OM 8829 OM OM1 8829 -0.550000 15.99940
8830 OM 8830 OM OM1 8830 -0.550000 15.99940
8831 OM 8831 OM OM1 8831 -0.550000 15.99940
8832 OM 8832 OM OM1 8832 -0.550000 15.99940
8833 OM 8833 OM OM1 8833 -0.550000 15.99940
8834 OM 8834 OM OM1 8834 -0.550000 15.99940
8835 OM 8835 OM OM1 8835 -0.550000 15.99940
8836 OM 8836 OM OM1 8836 -0.550000 15.99940
8837 OM 8837 OM OM1 8837 -0.550000 15.99940
8838 OM 8838 OM OM1 8838 -0.550000 15.99940
8839 OM 8839 OM OM1 8839 -0.550000 15.99940
8840 OM 8840 OM OM1 8840 -0.550000 15.99940
8841 OM 8841 OM OM1 8841 -0.550000 15.99940
8842 OM 8842 OM OM1 8842 -0.550000 15.99940
8843 OM 8843 OM OM1 8843 -0.550000 15.99940
8844 OM 8844 OM OM1 8844 -0.550000 15.99940
8845 OM 8845 OM OM1 8845 -0.550000 15.99940
8846 OM 8846 OM OM1 8846 -0.550000 15.99940
8847 OM 8847 OM OM1 8847 -0.550000 15.99940
8848 OM 8848 OM OM1 8848 -0.550000 15.99940
8849 OM 8849 OM OM1 8849 -0.550000 15.99940
8850 OM 8850 OM OM1 8850 -0.550000 15.99940
8851 OM 8851 OM OM1 8851 -0.550000 15.99940
8852 OM 8852 OM OM1 8852 -0.550000 15.99940
8853 OM 8853 OM OM1 8853 -0.550000 15.99940
8854 OM 8854 OM OM1 8854 -0.550000 15.99940
8855 OM 8855 OM OM1 8855 -0.550000 15.99940
8856 OM 8856 OM OM1 8856 -0.550000 15.99940
8857 OM 8857 OM OM1 8857 -0.550000 15.99940
8858 OM 8858 OM OM1 8858 -0.550000 15.99940
8859 OM 8859 OM OM1 8859 -0.550000 15.99940
8860 OM 8860 OM OM1 8860 -0.550000 15.99940
8861 OM 8861 OM OM1 8861 -0.550000 15.99940
8862 OM 8862 OM OM1 8862 -0.550000 15.99940
8863 OM 8863 OM OM1 8863 -0.550000 15.99940
8864 OM 8864 OM OM1 8864 -0.550000 15.99940
8865 OM 8865 OM OM1 8865 -0.550000 15.99940
8866 OM 8866 OM OM1 8866 -0.550000 15.99940
8867 OM 8867 OM OM1 8867 -0.550000 15.99940
8868 OM 8868 OM OM1 8868 -0.550000 15.99940
8869 OM 8869 OM OM1 8869 -0.550000 15.99940
8870 OM 8870 OM OM1 8870 -0.550000 15.99940
8871 OM 8871 OM OM1 8871 -0.550000 15.99940
8872 OM 8872 OM OM1 8872 -0.550000 15.99940
8873 OM 8873 OM OM1 8873 -0.550000 15.99940
8874 OM 8874 OM OM1 8874 -0.550000 15.99940
8875 OM 8875 OM OM1 8875 -0.550000 15.99940
8876 OM 8876 OM OM1 8876 -0.550000 15.99940
8877 OM 8877 OM OM1 8877 -0.550000 15.99940
8878 OM 8878 OM OM1 8878 -0.550000 15.99940
8879 OM 8879 OM OM1 8879 -0.550000 15.99940
8880 OM 8880 OM OM1 8880 -0.550000 15.99940
8881 OM 8881 OM OM1 8881 -0.550000 15.99940
8882 OM 8882 OM OM1 8882 -0.550000 15.99940
8883 OM 8883 OM OM1 8883 -0.550000 15.99940
8884 OM 8884 OM OM1 8884 -0.550000 15.99940
8885 OM 8885 OM OM1 8885 -0.550000 15.99940
8886 OM 8886 OM OM1 8886 -0.550000 15.99940
8887 OM 8887 OM OM1 8887 -0.550000 15.99940
8888 OM 8888 OM OM1 8888 -0.550000 15.99940
8889 OM 8889 OM OM1 8889 -0.550000 15.99940
8890 OM 8890 OM OM1 8890 -0.550000 15.99940
8891 OM 8891 OM OM1 8891 -0.550000 15.99940
8892 OM 8892 OM OM1 8892 -0.550000 15.99940
8893 OM 8893 OM OM1 8893 -0.550000 15.99940
8894 OM 8894 OM OM1 8894 -0.550000 15.99940
8895 OM 8895 OM OM1 8895 -0.550000 15.99940
8896 OM 8896 OM OM1 8896 -0.550000 15.99940
8897 OM 8897 OM OM1 8897 -0.550000 15.99940
8898 OM 8898 OM OM1 8898 -0.550000 15.99940
8899 OM 8899 OM OM1 8899 -0.550000 15.99940
8900 OM 8900 OM OM1 8900 -0.550000 15.99940
8901 OM 8901 OM OM1 8901 -0.550000 15.99940
8902 OM 8902 OM OM1 8902 -0.550000 15.99940
8903 OM 8903 OM OM1 8903 -0.550000 15.99940
8904 OM 8904 OM OM1 8904 -0.550000 15.99940
8905 OM 8905 OM OM1 8905 -0.550000 15.99940
8906 OM 8906 OM OM1 8906 -0.550000 15.99940
8907 OM 8907 OM OM1 8907 -0.550000 15.99940
8908 OM 8908 OM OM1 8908 -0.550000 15.99940
8909 OM 8909 OM OM1 8909 -0.550000 15.99940
8910 OM 8910 OM OM1 8910 -0.550000 15.99940
8911 OM 8911 OM OM1 8911 -0.550000 15.99940
8912 OM 8912 OM OM1 8912 -0.550000 15.99940
8913 OM 8913 OM OM1 8913 -0.550000 15.99940
8914 OM 8914 OM OM1 8914 -0.550000 15.99940
8915 OM 8915 OM OM1 8915 -0.550000 15.99940
8916 OM 8916 OM OM1 8916 -0.550000 15.99940
8917 OM 8917 OM OM1 8917 -0.550000 15.99940
8918 OM 8918 OM OM1 8918 -0.550000 15.99940
8919 OM 8919 OM OM1 8919 -0.550000 15.99940
8920 OM 8920 OM OM1 8920 -0.550000 15.99940
8921 OM 8921 OM OM1 8921 -0.550000 15.99940
8922 OM 8922 OM OM1 8922 -0.550000 15.99940
8923 OM 8923 OM OM1 8923 -0.550000 15.99940
8924 OM 8924 OM OM1 8924 -0.550000 15.99940
8925 OM 8925 OM OM1 8925 -0.550000 15.99940
8926 OM 8926 OM OM1 8926 -0.550000 15.99940
8927 OM 8927 OM OM1 8927 -0.550000 15.99940
8928 OM 8928 OM OM1 8928 -0.550000 15.99940
8929 OM 8929 OM OM1 8929 -0.550000 15.99940
8930 OM 8930 OM OM1 8930 -0.550000 15.99940
8931 OM 8931 OM OM1 8931 -0.550000 15.99940
8932 OM 8932 OM OM1 8932 -0.550000 15.99940
8933 OM 8933 OM OM1 8933 -0.550000 15.99940
8934 OM 8934 OM OM1 8934 -0.550000 15.99940
8935 OM 8935 OM OM1 8935 -0.550000 15.99940
8936 OM 8936 OM OM1 8936 -0.550000 15.99940
8937 OM 8937 OM OM1 8937 -0.550000 15.99940
8938 OM 8938 OM OM1 8938 -0.550000 15.99940
8939 OM 8939 OM OM1 8939 -0.550000 15.99940
8940 OM 8940 OM OM1 8940 -0.550000 15.99940
8941 OM 8941 OM OM1 8941 -0.550000 15.99940
8942 OM 8942 OM OM1 8942 -0.550000 15.99940
8943 OM 8943 OM OM1 8943 -0.550000 15.99940
8944 OM 8944 OM OM1 8944 -0.550000 15.99940
8945 OM 8945 OM OM1 8945 -0.550000 15.99940
8946 OM 8946 OM OM1 8946 -0.550000 15.99940
8947 OM 8947 OM OM1 8947 -0.550000 15.99940
8948 OM 8948 OM OM1 8948 -0.550000 15.99940
8949 OM 8949 OM OM1 8949 -0.550000 15.99940
8950 OM 8950 OM OM1 8950 -0.550000 15.99940
8951 OM 8951 OM OM1 8951 -0.550000 15.99940
8952 OM 8952 OM OM1 8952 -0.550000 15.99940
8953 OM 8953 OM OM1 8953 -0.550000 15.99940
8954 OM 8954 OM OM1 8954 -0.550000 15.99940
8955 OM 8955 OM OM1 8955 -0.550000 15.99940
8956 OM 8956 OM OM1 8956 -0.550000 15.99940
8957 OM 8957 OM OM1 8957 -0.550000 15.99940
8958 OM 8958 OM OM1 8958 -0.550000 15.99940
8959 OM 8959 OM OM1 8959 -0.550000 15.99940
8960 OM 8960 OM OM1 8960 -0.550000 15.99940
8961 OM 8961 OM OM1 8961 -0.550000 15.99940
8962 OM 8962 OM OM1 8962 -0.550000 15.99940
8963 OM 8963 OM OM1 8963 -0.550000 15.99940
8964 OM 8964 OM OM1 8964 -0.550000 15.99940
8965 OM 8965 OM OM1 8965 -0.550000 15.99940
8966 OM 8966 OM OM1 8966 -0.550000 15.99940
8967 OM 8967 OM OM1 8967 -0.550000 15.99940
8968 OM 8968 OM OM1 8968 -0.550000 15.99940
8969 OM 8969 OM OM1 8969 -0.550000 15.99940
8970 OM 8970 OM OM1 8970 -0.550000 15.99940
8971 OM 8971 OM OM1 8971 -0.550000 15.99940
8972 OM 8972 OM OM1 8972 -0.550000 15.99940
8973 OM 8973 OM OM1 8973 -0.550000 15.99940
8974 OM 8974 OM OM1 8974 -0.550000 15.99940
8975 OM 8975 OM OM1 8975 -0.550000 15.99940
8976 OM 8976 OM OM1 8976 -0.550000 15.99940
8977 OM 8977 OM OM1 8977 -0.550000 15.99940
8978 OM 8978 OM OM1 8978 -0.550000 15.99940
8979 OM 8979 OM OM1 8979 -0.550000 15.99940
8980 OM 8980 OM OM1 8980 -0.550000 15.99940
8981 OM 8981 OM OM1 8981 -0.550000 15.99940
8982 OM 8982 OM OM1 8982 -0.550000 15.99940
8983 OM 8983 OM OM1 8983 -0.550000 15.99940
8984 OM 8984 OM OM1 8984 -0.550000 15.99940
8985 OM 8985 OM OM1 8985 -0.550000 15.99940
8986 OM 8986 OM OM1 8986 -0.550000 15.99940
8987 OM 8987 OM OM1 8987 -0.550000 15.99940
8988 OM 8988 OM OM1 8988 -0.550000 15.99940
8989 OM 8989 OM OM1 8989 -0.550000 15.99940
8990 OM 8990 OM OM1 8990 -0.550000 15.99940
8991 OM 8991 OM OM1 8991 -0.550000 15.99940
8992 OM 8992 OM OM1 8992 -0.550000 15.99940
8993 OM 8993 OM OM1 8993 -0.550000 15.99940
8994 OM 8994 OM OM1 8994 -0.550000 15.99940
8995 OM 8995 OM OM1 8995 -0.550000 15.99940
8996 OM 8996 OM OM1 8996 -0.550000 15.99940
8997 OM 8997 OM OM1 8997 -0.550000 15.99940
8998 OM 8998 OM OM1 8998 -0.550000 15.99940
8999 OM 8999 OM OM1 8999 -0.550000 15.99940
9000 OM 9000 OM OM1 9000 -0.550000 15.99940
9001 OM 9001 OM OM1 9001 -0.550000 15.99940
9002 OM 9002 OM OM1 9002 -0.550000 15.99940
9003 OM 9003 OM OM1 9003 -0.550000 15.99940
9004 OM 9004 OM OM1 9004 -0.550000 15.99940
9005 OM 9005 OM OM1 9005 -0.550000 15.99940
9006 OM 9006 OM OM1 9006 -0.550000 15.99940
9007 OM 9007 OM OM1 9007 -0.550000 15.99940
9008 OM 9008 OM OM1 9008 -0.550000 15.99940
9009 OM 9009 OM OM1 9009 -0.550000 15.99940
9010 OM 9010 OM OM1 9010 -0.550000 15.99940
9011 OM 9011 OM OM1 9011 -0.550000 15.99940
9012 OM 9012 OM OM1 9012 -0.550000 15.99940
9013 OM 9013 OM OM1 9013 -0.550000 15.99940
9014 OM 9014 OM OM1 9014 -0.550000 15.99940
9015 OM 9015 OM OM1 9015 -0.550000 15.99940
9016 OM 9016 OM OM1 9016 -0.550000 15.99940
9017 OM 9017 OM OM1 9017 -0.550000 15.99940
9018 OM 9018 OM OM1 9018 -0.550000 15.99940
9019 OM 9019 OM OM1 9019 -0.550000 15.99940
9020 OM 9020 OM OM1 9020 -0.550000 15.99940
9021 OM 9021 OM OM1 9021 -0.550000 15.99940
9022 OM 9022 OM OM1 9022 -0.550000 15.99940
9023 OM 9023 OM OM1 9023 -0.550000 15.99940
9024 OM 9024 OM OM1 9024 -0.550000 15.99940
9025 OM 9025 OM OM1 9025 -0.550000 15.99940
9026 OM 9026 OM OM1 9026 -0.550000 15.99940
9027 OM 9027 OM OM1 9027 -0.550000 15.99940
9028 OM 9028 OM OM1 9028 -0.550000 15.99940
9029 OM 9029 OM OM1 9029 -0.550000 15.99940
9030 OM 9030 OM OM1 9030 -0.550000 15.99940
9031 OM 9031 OM OM1 9031 -0.550000 15.99940
9032 OM 9032 OM OM1 9032 -0.550000 15.99940
9033 OM 9033 OM OM1 9033 -0.550000 15.99940
9034 OM 9034 OM OM1 9034 -0.550000 15.99940
9035 OM 9035 OM OM1 9035 -0.550000 15.99940
9036 OM 9036 OM OM1 9036 -0.550000 15.99940
9037 OM 9037 OM OM1 9037 -0.550000 15.99940
9038 OM 9038 OM OM1 9038 -0.550000 15.99940
9039 OM 9039 OM OM1 9039 -0.550000 15.99940
9040 OM 9040 OM OM1 9040 -0.550000 15.99940
9041 OM 9041 OM OM1 9041 -0.550000 15.99940
9042 OM 9042 OM OM1 9042 -0.550000 15.99940
9043 OM 9043 OM OM1 9043 -0.550000 15.99940
9044 OM 9044 OM OM1 9044 -0.550000 15.99940
9045 OM 9045 OM OM1 9045 -0.550000 15.99940
9046 OM 9046 OM OM1 9046 -0.550000 15.99940
9047 OM 9047 OM OM1 9047 -0.550000 15.99940
9048 OM 9048 OM OM1 9048 -0.550000 15.99940
9049 OM 9049 OM OM1 9049 -0.550000 15.99940
9050 OM 9050 OM OM1 9050 -0.550000 15.99940
9051 OM 9051 OM OM1 9051 -0.550000 15.99940
9052 OM 9052 OM OM1 9052 -0.550000 15.99940
9053 OM 9053 OM OM1 9053 -0.550000 15.99940
9054 OM 9054 OM OM1 9054 -0.550000 15.99940
9055 OM 9055 OM OM1 9055 -0.550000 15.99940
9056 OM 9056 OM OM1 9056 -0.550000 15.99940
9057 OM 9057 OM OM1 9057 -0.550000 15.99940
9058 OM 9058 OM OM1 9058 -0.550000 15.99940
9059 OM 9059 OM OM1 9059 -0.550000 15.99940
9060 OM 9060 OM OM1 9060 -0.550000 15.99940
9061 OM 9061 OM OM1 9061 -0.550000 15.99940
9062 OM 9062 OM OM1 9062 -0.550000 15.99940
9063 OM 9063 OM OM1 9063 -0.550000 15.99940
9064 OM 9064 OM OM1 9064 -0.550000 15.99940
9065 OM 9065 OM OM1 9065 -0.550000 15.99940
9066 OM 9066 OM OM1 9066 -0.550000 15.99940
9067 OM 9067 OM OM1 9067 -0.550000 15.99940
9068 OM 9068 OM OM1 9068 -0.550000 15.99940
9069 OM 9069 OM OM1 9069 -0.550000 15.99940
9070 OM 9070 OM OM1 9070 -0.550000 15.99940
9071 OM 9071 OM OM1 9071 -0.550000 15.99940
9072 OM 9072 OM OM1 9072 -0.550000 15.99940
9073 OM 9073 OM OM1 9073 -0.550000 15.99940
9074 OM 9074 OM OM1 9074 -0.550000 15.99940
9075 OM 9075 OM OM1 9075 -0.550000 15.99940
9076 OM 9076 OM OM1 9076 -0.550000 15.99940
9077 OM 9077 OM OM1 9077 -0.550000 15.99940
9078 OM 9078 OM OM1 9078 -0.550000 15.99940
9079 OM 9079 OM OM1 9079 -0.550000 15.99940
9080 OM 9080 OM OM1 9080 -0.550000 15.99940
9081 OM 9081 OM OM1 9081 -0.550000 15.99940
9082 OM 9082 OM OM1 9082 -0.550000 15.99940
9083 OM 9083 OM OM1 9083 -0.550000 15.99940
9084 OM 9084 OM OM1 9084 -0.550000 15.99940
9085 OM 9085 OM OM1 9085 -0.550000 15.99940
9086 OM 9086 OM OM1 9086 -0.550000 15.99940
9087 OM 9087 OM OM1 9087 -0.550000 15.99940
9088 OM 9088 OM OM1 9088 -0.550000 15.99940
9089 OM 9089 OM OM1 9089 -0.550000 15.99940
9090 OM 9090 OM OM1 9090 -0.550000 15.99940
9091 OM 9091 OM OM1 9091 -0.550000 15.99940
9092 OM 9092 OM OM1 9092 -0.550000 15.99940
9093 OM 9093 OM OM1 9093 -0.550000 15.99940
9094 OM 9094 OM OM1 9094 -0.550000 15.99940
9095 OM 9095 OM OM1 9095 -0.550000 15.99940
9096 OM 9096 OM OM1 9096 -0.550000 15.99940
9097 OM 9097 OM OM1 9097 -0.550000 15.99940
9098 OM 9098 OM OM1 9098 -0.550000 15.99940
9099 OM 9099 OM OM1 9099 -0.550000 15.99940
9100 OM 9100 OM OM1 9100 -0.550000 15.99940
9101 OM 9101 OM OM1 9101 -0.550000 15.99940
9102 OM 9102 OM OM1 9102 -0.550000 15.99940
9103 OM 9103 OM OM1 9103 -0.550000 15.99940
9104 OM 9104 OM OM1 9104 -0.550000 15.99940
9105 OM 9105 OM OM1 9105 -0.550000 15.99940
9106 OM 9106 OM OM1 9106 -0.550000 15.99940
9107 OM 9107 OM OM1 9107 -0.550000 15.99940
9108 OM 9108 OM OM1 9108 -0.550000 15.99940
9109 OM 9109 OM OM1 9109 -0.550000 15.99940
9110 OM 9110 OM OM1 9110 -0.550000 15.99940
9111 OM 9111 OM OM1 9111 -0.550000 15.99940
9112 OM 9112 OM OM1 9112 -0.550000 15.99940
9113 OM 9113 OM OM1 9113 -0.550000 15.99940
9114 OM 9114 OM OM1 9114 -0.550000 15.99940
9115 OM 9115 OM OM1 9115 -0.550000 15.99940
9116 OM 9116 OM OM1 9116 -0.550000 15.99940
9117 OM 9117 OM OM1 9117 -0.550000 15.99940
9118 OM 9118 OM OM1 9118 -0.550000 15.99940
9119 OM 9119 OM OM1 9119 -0.550000 15.99940
9120 OM 9120 OM OM1 9120 -0.550000 15.99940
9121 OM 9121 OM OM1 9121 -0.550000 15.99940
9122 OM 9122 OM OM1 9122 -0.550000 15.99940
9123 OM 9123 OM OM1 9123 -0.550000 15.99940
9124 OM 9124 OM OM1 9124 -0.550000 15.99940
9125 OM 9125 OM OM1 9125 -0.550000 15.99940
9126 OM 9126 OM OM1 9126 -0.550000 15.99940
9127 OM 9127 OM OM1 9127 -0.550000 15.99940
9128 OM 9128 OM OM1 9128 -0.550000 15.99940
9129 OM 9129 OM OM1 9129 -0.550000 15.99940
9130 OM 9130 OM OM1 9130 -0.550000 15.99940
9131 OM 9131 OM OM1 9131 -0.550000 15.99940
9132 OM 9132 OM OM1 9132 -0.550000 15.99940
9133 OM 9133 OM OM1 9133 -0.550000 15.99940
9134 OM 9134 OM OM1 9134 -0.550000 15.99940
9135 OM 9135 OM OM1 9135 -0.550000 15.99940
9136 OM 9136 OM OM1 9136 -0.550000 15.99940
9137 OM 9137 OM OM1 9137 -0.550000 15.99940
9138 OM 9138 OM OM1 9138 -0.550000 15.99940
9139 OM 9139 OM OM1 9139 -0.550000 15.99940
9140 OM 9140 OM OM1 9140 -0.550000 15.99940
9141 OM 9141 OM OM1 9141 -0.550000 15.99940
9142 OM 9142 OM OM1 9142 -0.550000 15.99940
9143 OM 9143 OM OM1 9143 -0.550000 15.99940
9144 OM 9144 OM OM1 9144 -0.550000 15.99940
9145 OM 9145 OM OM1 9145 -0.550000 15.99940
9146 OM 9146 OM OM1 9146 -0.550000 15.99940
9147 OM 9147 OM OM1 9147 -0.550000 15.99940
9148 OM 9148 OM OM1 9148 -0.550000 15.99940
9149 OM 9149 OM OM1 9149 -0.550000 15.99940
9150 OM 9150 OM OM1 9150 -0.550000 15.99940
9151 OM 9151 OM OM1 9151 -0.550000 15.99940
9152 OM 9152 OM OM1 9152 -0.550000 15.99940
9153 OM 9153 OM OM1 9153 -0.550000 15.99940
9154 OM 9154 OM OM1 9154 -0.550000 15.99940
9155 OM 9155 OM OM1 9155 -0.550000 15.99940
9156 OM 9156 OM OM1 9156 -0.550000 15.99940
9157 OM 9157 OM OM1 9157 -0.550000 15.99940
9158 OM 9158 OM OM1 9158 -0.550000 15.99940
9159 OM 9159 OM OM1 9159 -0.550000 15.99940
9160 OM 9160 OM OM1 9160 -0.550000 15.99940
9161 OM 9161 OM OM1 9161 -0.550000 15.99940
9162 OM 9162 OM OM1 9162 -0.550000 15.99940
9163 OM 9163 OM OM1 9163 -0.550000 15.99940
9164 OM 9164 OM OM1 9164 -0.550000 15.99940
9165 OM 9165 OM OM1 9165 -0.550000 15.99940
9166 OM 9166 OM OM1 9166 -0.550000 15.99940
9167 OM 9167 OM OM1 9167 -0.550000 15.99940
9168 OM 9168 OM OM1 9168 -0.550000 15.99940
9169 OM 9169 OM OM1 9169 -0.550000 15.99940
9170 OM 9170 OM OM1 9170 -0.550000 15.99940
9171 OM 9171 OM OM1 9171 -0.550000 15.99940
9172 OM 9172 OM OM1 9172 -0.550000 15.99940
9173 OM 9173 OM OM1 9173 -0.550000 15.99940
9174 OM 9174 OM OM1 9174 -0.550000 15.99940
9175 OM 9175 OM OM1 9175 -0.550000 15.99940
9176 OM 9176 OM OM1 9176 -0.550000 15.99940
9177 OM 9177 OM OM1 9177 -0.550000 15.99940
9178 OM 9178 OM OM1 9178 -0.550000 15.99940
9179 OM 9179 OM OM1 9179 -0.550000 15.99940
9180 OM 9180 OM OM1 9180 -0.550000 15.99940
9181 OM 9181 OM OM1 9181 -0.550000 15.99940
9182 OM 9182 OM OM1 9182 -0.550000 15.99940
9183 OM 9183 OM OM1 9183 -0.550000 15.99940
9184 OM 9184 OM OM1 9184 -0.550000 15.99940
9185 OM 9185 OM OM1 9185 -0.550000 15.99940
9186 OM 9186 OM OM1 9186 -0.550000 15.99940
9187 OM 9187 OM OM1 9187 -0.550000 15.99940
9188 OM 9188 OM OM1 9188 -0.550000 15.99940
9189 OM 9189 OM OM1 9189 -0.550000 15.99940
9190 OM 9190 OM OM1 9190 -0.550000 15.99940
9191 OM 9191 OM OM1 9191 -0.550000 15.99940
9192 OM 9192 OM OM1 9192 -0.550000 15.99940
9193 OM 9193 OM OM1 9193 -0.550000 15.99940
9194 OM 9194 OM OM1 9194 -0.550000 15.99940
9195 OM 9195 OM OM1 9195 -0.550000 15.99940
9196 OM 9196 OM OM1 9196 -0.550000 15.99940
9197 OM 9197 OM OM1 9197 -0.550000 15.99940
9198 OM 9198 OM OM1 9198 -0.550000 15.99940
9199 OM 9199 OM OM1 9199 -0.550000 15.99940
9200 OM 9200 OM OM1 9200 -0.550000 15.99940
9201 OM 9201 OM OM1 9201 -0.550000 15.99940
9202 OM 9202 OM OM1 9202 -0.550000 15.99940
9203 OM 9203 OM OM1 9203 -0.550000 15.99940
9204 OM 9204 OM OM1 9204 -0.550000 15.99940
9205 OM 9205 OM OM1 9205 -0.550000 15.99940
9206 OM 9206 OM OM1 9206 -0.550000 15.99940
9207 OM 9207 OM OM1 9207 -0.550000 15.99940
9208 OM 9208 OM OM1 9208 -0.550000 15.99940
9209 OM 9209 OM OM1 9209 -0.550000 15.99940
9210 OM 9210 OM OM1 9210 -0.550000 15.99940
9211 OM 9211 OM OM1 9211 -0.550000 15.99940
9212 OM 9212 OM OM1 9212 -0.550000 15.99940
9213 OM 9213 OM OM1 9213 -0.550000 15.99940
9214 OM 9214 OM OM1 9214 -0.550000 15.99940
9215 OM 9215 OM OM1 9215 -0.550000 15.99940
9216 OM 9216 OM OM1 9216 -0.550000 15.99940
9217 OM 9217 OM OM1 9217 -0.550000 15.99940
9218 OM 9218 OM OM1 9218 -0.550000 15.99940
9219 OM 9219 OM OM1 9219 -0.550000 15.99940
9220 OM 9220 OM OM1 9220 -0.550000 15.99940
9221 OM 9221 OM OM1 9221 -0.550000 15.99940
9222 OM 9222 OM OM1 9222 -0.550000 15.99940
9223 OM 9223 OM OM1 9223 -0.550000 15.99940
9224 OM 9224 OM OM1 9224 -0.550000 15.99940
9225 OM 9225 OM OM1 9225 -0.550000 15.99940
9226 OM 9226 OM OM1 9226 -0.550000 15.99940
9227 OM 9227 OM OM1 9227 -0.550000 15.99940
9228 OM 9228 OM OM1 9228 -0.550000 15.99940
9229 OM 9229 OM OM1 9229 -0.550000 15.99940
9230 OM 9230 OM OM1 9230 -0.550000 15.99940
9231 OM 9231 OM OM1 9231 -0.550000 15.99940
9232 OM 9232 OM OM1 9232 -0.550000 15.99940
9233 OM 9233 OM OM1 9233 -0.550000 15.99940
9234 OM 9234 OM OM1 9234 -0.550000 15.99940
9235 OM 9235 OM OM1 9235 -0.550000 15.99940
9236 OM 9236 OM OM1 9236 -0.550000 15.99940
9237 OM 9237 OM OM1 9237 -0.550000 15.99940
9238 OM 9238 OM OM1 9238 -0.550000 15.99940
9239 OM 9239 OM OM1 9239 -0.550000 15.99940
9240 OM 9240 OM OM1 9240 -0.550000 15.99940
9241 OM 9241 OM OM1 9241 -0.550000 15.99940
9242 OM 9242 OM OM1 9242 -0.550000 15.99940
9243 OM 9243 OM OM1 9243 -0.550000 15.99940
9244 OM 9244 OM OM1 9244 -0.550000 15.99940
9245 OM 9245 OM OM1 9245 -0.550000 15.99940
9246 OM 9246 OM OM1 9246 -0.550000 15.99940
9247 OM 9247 OM OM1 9247 -0.550000 15.99940
9248 OM 9248 OM OM1 9248 -0.550000 15.99940
9249 OM 9249 OM OM1 9249 -0.550000 15.99940
9250 OM 9250 OM OM1 9250 -0.550000 15.99940
9251 OM 9251 OM OM1 9251 -0.550000 15.99940
9252 OM 9252 OM OM1 9252 -0.550000 15.99940
9253 OM 9253 OM OM1 9253 -0.550000 15.99940
9254 OM 9254 OM OM1 9254 -0.550000 15.99940
9255 OM 9255 OM OM1 9255 -0.550000 15.99940
9256 OM 9256 OM OM1 9256 -0.550000 15.99940
9257 OM 9257 OM OM1 9257 -0.550000 15.99940
9258 OM 9258 OM OM1 9258 -0.550000 15.99940
9259 OM 9259 OM OM1 9259 -0.550000 15.99940
9260 OM 9260 OM OM1 9260 -0.550000 15.99940
9261 OM 9261 OM OM1 9261 -0.550000 15.99940
9262 OM 9262 OM OM1 9262 -0.550000 15.99940
9263 OM 9263 OM OM1 9263 -0.550000 15.99940
9264 OM 9264 OM OM1 9264 -0.550000 15.99940
9265 OM 9265 OM OM1 9265 -0.550000 15.99940
9266 OM 9266 OM OM1 9266 -0.550000 15.99940
9267 OM 9267 OM OM1 9267 -0.550000 15.99940
9268 OM 9268 OM OM1 9268 -0.550000 15.99940
9269 OM 9269 OM OM1 9269 -0.550000 15.99940
9270 OM 9270 OM OM1 9270 -0.550000 15.99940
9271 OM 9271 OM OM1 9271 -0.550000 15.99940
9272 OM 9272 OM OM1 9272 -0.550000 15.99940
9273 OM 9273 OM OM1 9273 -0.550000 15.99940
9274 OM 9274 OM OM1 9274 -0.550000 15.99940
9275 OM 9275 OM OM1 9275 -0.550000 15.99940
9276 OM 9276 OM OM1 9276 -0.550000 15.99940
9277 OM 9277 OM OM1 9277 -0.550000 15.99940
9278 OM 9278 OM OM1 9278 -0.550000 15.99940
9279 OM 9279 OM OM1 9279 -0.550000 15.99940
9280 OM 9280 OM OM1 9280 -0.550000 15.99940
9281 OM 9281 OM OM1 9281 -0.550000 15.99940
9282 OM 9282 OM OM1 9282 -0.550000 15.99940
9283 OM 9283 OM OM1 9283 -0.550000 15.99940
9284 OM 9284 OM OM1 9284 -0.550000 15.99940
9285 OM 9285 OM OM1 9285 -0.550000 15.99940
9286 OM 9286 OM OM1 9286 -0.550000 15.99940
9287 OM 9287 OM OM1 9287 -0.550000 15.99940
9288 OM 9288 OM OM1 9288 -0.550000 15.99940
9289 OM 9289 OM OM1 9289 -0.550000 15.99940
9290 OM 9290 OM OM1 9290 -0.550000 15.99940
9291 OM 9291 OM OM1 9291 -0.550000 15.99940
9292 OM 9292 OM OM1 9292 -0.550000 15.99940
9293 OM 9293 OM OM1 9293 -0.550000 15.99940
9294 OM 9294 OM OM1 9294 -0.550000 15.99940
9295 OM 9295 OM OM1 9295 -0.550000 15.99940
9296 OM 9296 OM OM1 9296 -0.550000 15.99940
9297 OM 9297 OM OM1 9297 -0.550000 15.99940
9298 OM 9298 OM OM1 9298 -0.550000 15.99940
9299 OM 9299 OM OM1 9299 -0.550000 15.99940
9300 OM 9300 OM OM1 9300 -0.550000 15.99940
9301 OM 9301 OM OM1 9301 -0.550000 15.99940
9302 OM 9302 OM OM1 9302 -0.550000 15.99940
9303 OM 9303 OM OM1 9303 -0.550000 15.99940
9304 OM 9304 OM OM1 9304 -0.550000 15.99940
9305 OM 9305 OM OM1 9305 -0.550000 15.99940
9306 OM 9306 OM OM1 9306 -0.550000 15.99940
9307 OM 9307 OM OM1 9307 -0.550000 15.99940
9308 OM 9308 OM OM1 9308 -0.550000 15.99940
9309 OM 9309 OM OM1 9309 -0.550000 15.99940
9310 OM 9310 OM OM1 9310 -0.550000 15.99940
9311 OM 9311 OM OM1 9311 -0.550000 15.99940
9312 OM 9312 OM OM1 9312 -0.550000 15.99940
9313 OM 9313 OM OM1 9313 -0.550000 15.99940
9314 OM 9314 OM OM1 9314 -0.550000 15.99940
9315 OM 9315 OM OM1 9315 -0.550000 15.99940
9316 OM 9316 OM OM1 9316 -0.550000 15.99940
9317 OM 9317 OM OM1 9317 -0.550000 15.99940
9318 OM 9318 OM OM1 9318 -0.550000 15.99940
9319 OM 9319 OM OM1 9319 -0.550000 15.99940
9320 OM 9320 OM OM1 9320 -0.550000 15.99940
9321 OM 9321 OM OM1 9321 -0.550000 15.99940
9322 OM 9322 OM OM1 9322 -0.550000 15.99940
9323 OM 9323 OM OM1 9323 -0.550000 15.99940
9324 OM 9324 OM OM1 9324 -0.550000 15.99940
9325 OM 9325 OM OM1 9325 -0.550000 15.99940
9326 OM 9326 OM OM1 9326 -0.550000 15.99940
9327 OM 9327 OM OM1 9327 -0.550000 15.99940
9328 OM 9328 OM OM1 9328 -0.550000 15.99940
9329 OM 9329 OM OM1 9329 -0.550000 15.99940
9330 OM 9330 OM OM1 9330 -0.550000 15.99940
9331 OM 9331 OM OM1 9331 -0.550000 15.99940
9332 OM 9332 OM OM1 9332 -0.550000 15.99940
9333 OM 9333 OM OM1 9333 -0.550000 15.99940
9334 OM 9334 OM OM1 9334 -0.550000 15.99940
9335 OM 9335 OM OM1 9335 -0.550000 15.99940
9336 OM 9336 OM OM1 9336 -0.550000 15.99940
9337 OM 9337 OM OM1 9337 -0.550000 15.99940
9338 OM 9338 OM OM1 9338 -0.550000 15.99940
9339 OM 9339 OM OM1 9339 -0.550000 15.99940
9340 OM 9340 OM OM1 9340 -0.550000 15.99940
9341 OM 9341 OM OM1 9341 -0.550000 15.99940
9342 OM 9342 OM OM1 9342 -0.550000 15.99940
9343 OM 9343 OM OM1 9343 -0.550000 15.99940
9344 OM 9344 OM OM1 9344 -0.550000 15.99940
9345 OM 9345 OM OM1 9345 -0.550000 15.99940
9346 OM 9346 OM OM1 9346 -0.550000 15.99940
9347 OM 9347 OM OM1 9347 -0.550000 15.99940
9348 OM 9348 OM OM1 9348 -0.550000 15.99940
9349 OM 9349 OM OM1 9349 -0.550000 15.99940
9350 OM 9350 OM OM1 9350 -0.550000 15.99940
9351 OM 9351 OM OM1 9351 -0.550000 15.99940
9352 OM 9352 OM OM1 9352 -0.550000 15.99940
9353 OM 9353 OM OM1 9353 -0.550000 15.99940
9354 OM 9354 OM OM1 9354 -0.550000 15.99940
9355 OM 9355 OM OM1 9355 -0.550000 15.99940
9356 OM 9356 OM OM1 9356 -0.550000 15.99940
9357 OM 9357 OM OM1 9357 -0.550000 15.99940
9358 OM 9358 OM OM1 9358 -0.550000 15.99940
9359 OM 9359 OM OM1 9359 -0.550000 15.99940
9360 OM 9360 OM OM1 9360 -0.550000 15.99940
9361 OM 9361 OM OM1 9361 -0.550000 15.99940
9362 OM 9362 OM OM1 9362 -0.550000 15.99940
9363 OM 9363 OM OM1 9363 -0.550000 15.99940
9364 OM 9364 OM OM1 9364 -0.550000 15.99940
9365 OM 9365 OM OM1 9365 -0.550000 15.99940
9366 OM 9366 OM OM1 9366 -0.550000 15.99940
9367 OM 9367 OM OM1 9367 -0.550000 15.99940
9368 OM 9368 OM OM1 9368 -0.550000 15.99940
9369 OM 9369 OM OM1 9369 -0.550000 15.99940
9370 OM 9370 OM OM1 9370 -0.550000 15.99940
9371 OM 9371 OM OM1 9371 -0.550000 15.99940
9372 OM 9372 OM OM1 9372 -0.550000 15.99940
9373 OM 9373 OM OM1 9373 -0.550000 15.99940
9374 OM 9374 OM OM1 9374 -0.550000 15.99940
9375 OM 9375 OM OM1 9375 -0.550000 15.99940
9376 OM 9376 OM OM1 9376 -0.550000 15.99940
9377 OM 9377 OM OM1 9377 -0.550000 15.99940
9378 OM 9378 OM OM1 9378 -0.550000 15.99940
9379 OM 9379 OM OM1 9379 -0.550000 15.99940
9380 OM 9380 OM OM1 9380 -0.550000 15.99940
9381 OM 9381 OM OM1 9381 -0.550000 15.99940
9382 OM 9382 OM OM1 9382 -0.550000 15.99940
9383 OM 9383 OM OM1 9383 -0.550000 15.99940
9384 OM 9384 OM OM1 9384 -0.550000 15.99940
9385 OM 9385 OM OM1 9385 -0.550000 15.99940
9386 OM 9386 OM OM1 9386 -0.550000 15.99940
9387 OM 9387 OM OM1 9387 -0.550000 15.99940
9388 OM 9388 OM OM1 9388 -0.550000 15.99940
9389 OM 9389 OM OM1 9389 -0.550000 15.99940
9390 OM 9390 OM OM1 9390 -0.550000 15.99940
9391 OM 9391 OM OM1 9391 -0.550000 15.99940
9392 OM 9392 OM OM1 9392 -0.550000 15.99940
9393 OM 9393 OM OM1 9393 -0.550000 15.99940
9394 OM 9394 OM OM1 9394 -0.550000 15.99940
9395 OM 9395 OM OM1 9395 -0.550000 15.99940
9396 OM 9396 OM OM1 9396 -0.550000 15.99940
9397 OM 9397 OM OM1 9397 -0.550000 15.99940
9398 OM 9398 OM OM1 9398 -0.550000 15.99940
9399 OM 9399 OM OM1 9399 -0.550000 15.99940
9400 OM 9400 OM OM1 9400 -0.550000 15.99940
9401 OM 9401 OM OM1 9401 -0.550000 15.99940
9402 OM 9402 OM OM1 9402 -0.550000 15.99940
9403 OM 9403 OM OM1 9403 -0.550000 15.99940
9404 OM 9404 OM OM1 9404 -0.550000 15.99940
9405 OM 9405 OM OM1 9405 -0.550000 15.99940
9406 OM 9406 OM OM1 9406 -0.550000 15.99940
9407 OM 9407 OM OM1 9407 -0.550000 15.99940
9408 OM 9408 OM OM1 9408 -0.550000 15.99940
9409 OM 9409 OM OM1 9409 -0.550000 15.99940
9410 OM 9410 OM OM1 9410 -0.550000 15.99940
9411 OM 9411 OM OM1 9411 -0.550000 15.99940
9412 OM 9412 OM OM1 9412 -0.550000 15.99940
9413 OM 9413 OM OM1 9413 -0.550000 15.99940
9414 OM 9414 OM OM1 9414 -0.550000 15.99940
9415 OM 9415 OM OM1 9415 -0.550000 15.99940
9416 OM 9416 OM OM1 9416 -0.550000 15.99940
9417 OM 9417 OM OM1 9417 -0.550000 15.99940
9418 OM 9418 OM OM1 9418 -0.550000 15.99940
9419 OM 9419 OM OM1 9419 -0.550000 15.99940
9420 OM 9420 OM OM1 9420 -0.550000 15.99940
9421 OM 9421 OM OM1 9421 -0.550000 15.99940
9422 OM 9422 OM OM1 9422 -0.550000 15.99940
9423 OM 9423 OM OM1 9423 -0.550000 15.99940
9424 OM 9424 OM OM1 9424 -0.550000 15.99940
9425 OM 9425 OM OM1 9425 -0.550000 15.99940
9426 OM 9426 OM OM1 9426 -0.550000 15.99940
9427 OM 9427 OM OM1 9427 -0.550000 15.99940
9428 OM 9428 OM OM1 9428 -0.550000 15.99940
9429 OM 9429 OM OM1 9429 -0.550000 15.99940
9430 OM 9430 OM OM1 9430 -0.550000 15.99940
9431 OM 9431 OM OM1 9431 -0.550000 15.99940
9432 OM 9432 OM OM1 9432 -0.550000 15.99940
9433 OM 9433 OM OM1 9433 -0.550000 15.99940
9434 OM 9434 OM OM1 9434 -0.550000 15.99940
9435 OM 9435 OM OM1 9435 -0.550000 15.99940
9436 OM 9436 OM OM1 9436 -0.550000 15.99940
9437 OM 9437 OM OM1 9437 -0.550000 15.99940
9438 OM 9438 OM OM1 9438 -0.550000 15.99940
9439 OM 9439 OM OM1 9439 -0.550000 15.99940
9440 OM 9440 OM OM1 9440 -0.550000 15.99940
9441 OM 9441 OM OM1 9441 -0.550000 15.99940
9442 OM 9442 OM OM1 9442 -0.550000 15.99940
9443 OM 9443 OM OM1 9443 -0.550000 15.99940
9444 OM 9444 OM OM1 9444 -0.550000 15.99940
9445 OM 9445 OM OM1 9445 -0.550000 15.99940
9446 OM 9446 OM OM1 9446 -0.550000 15.99940
9447 OM 9447 OM OM1 9447 -0.550000 15.99940
9448 OM 9448 OM OM1 9448 -0.550000 15.99940
9449 OM 9449 OM OM1 9449 -0.550000 15.99940
9450 OM 9450 OM OM1 9450 -0.550000 15.99940
9451 OM 9451 OM OM1 9451 -0.550000 15.99940
9452 OM 9452 OM OM1 9452 -0.550000 15.99940
9453 OM 9453 OM OM1 9453 -0.550000 15.99940
9454 OM 9454 OM OM1 9454 -0.550000 15.99940
9455 OM 9455 OM OM1 9455 -0.550000 15.99940
9456 OM 9456 OM OM1 9456 -0.550000 15.99940
9457 OM 9457 OM OM1 9457 -0.550000 15.99940
9458 OM 9458 OM OM1 9458 -0.550000 15.99940
9459 OM 9459 OM OM1 9459 -0.550000 15.99940
9460 OM 9460 OM OM1 9460 -0.550000 15.99940
9461 OM 9461 OM OM1 9461 -0.550000 15.99940
9462 OM 9462 OM OM1 9462 -0.550000 15.99940
9463 OM 9463 OM OM1 9463 -0.550000 15.99940
9464 OM 9464 OM OM1 9464 -0.550000 15.99940
9465 OM 9465 OM OM1 9465 -0.550000 15.99940
9466 OM 9466 OM OM1 9466 -0.550000 15.99940
9467 OM 9467 OM OM1 9467 -0.550000 15.99940
9468 OM 9468 OM OM1 9468 -0.550000 15.99940
9469 OM 9469 OM OM1 9469 -0.550000 15.99940
9470 OM 9470 OM OM1 9470 -0.550000 15.99940
9471 OM 9471 OM OM1 9471 -0.550000 15.99940
9472 OM 9472 OM OM1 9472 -0.550000 15.99940
9473 OM 9473 OM OM1 9473 -0.550000 15.99940
9474 OM 9474 OM OM1 9474 -0.550000 15.99940
9475 OM 9475 OM OM1 9475 -0.550000 15.99940
9476 OM 9476 OM OM1 9476 -0.550000 15.99940
9477 OM 9477 OM OM1 9477 -0.550000 15.99940
9478 OM 9478 OM OM1 9478 -0.550000 15.99940
9479 OM 9479 OM OM1 9479 -0.550000 15.99940
9480 OM 9480 OM OM1 9480 -0.550000 15.99940
9481 OM 9481 OM OM1 9481 -0.550000 15.99940
9482 OM 9482 OM OM1 9482 -0.550000 15.99940
9483 OM 9483 OM OM1 9483 -0.550000 15.99940
9484 OM 9484 OM OM1 9484 -0.550000 15.99940
9485 OM 9485 OM OM1 9485 -0.550000 15.99940
9486 OM 9486 OM OM1 9486 -0.550000 15.99940
9487 OM 9487 OM OM1 9487 -0.550000 15.99940
9488 OM 9488 OM OM1 9488 -0.550000 15.99940
9489 OM 9489 OM OM1 9489 -0.550000 15.99940
9490 OM 9490 OM OM1 9490 -0.550000 15.99940
9491 OM 9491 OM OM1 9491 -0.550000 15.99940
9492 OM 9492 OM OM1 9492 -0.550000 15.99940
9493 OM 9493 OM OM1 9493 -0.550000 15.99940
9494 OM 9494 OM OM1 9494 -0.550000 15.99940
9495 OM 9495 OM OM1 9495 -0.550000 15.99940
9496 OM 9496 OM OM1 9496 -0.550000 15.99940
9497 OM 9497 OM OM1 9497 -0.550000 15.99940
9498 OM 9498 OM OM1 9498 -0.550000 15.99940
9499 OM 9499 OM OM1 9499 -0.550000 15.99940
9500 OM 9500 OM OM1 9500 -0.550000 15.99940
9501 OM 9501 OM OM1 9501 -0.550000 15.99940
9502 OM 9502 OM OM1 9502 -0.550000 15.99940
9503 OM 9503 OM OM1 9503 -0.550000 15.99940
9504 OM 9504 OM OM1 9504 -0.550000 15.99940
9505 OM 9505 OM OM1 9505 -0.550000 15.99940
9506 OM 9506 OM OM1 9506 -0.550000 15.99940
9507 OM 9507 OM OM1 9507 -0.550000 15.99940
9508 OM 9508 OM OM1 9508 -0.550000 15.99940
9509 OM 9509 OM OM1 9509 -0.550000 15.99940
9510 OM 9510 OM OM1 9510 -0.550000 15.99940
9511 OM 9511 OM OM1 9511 -0.550000 15.99940
9512 OM 9512 OM OM1 9512 -0.550000 15.99940
9513 OM 9513 OM OM1 9513 -0.550000 15.99940
9514 OM 9514 OM OM1 9514 -0.550000 15.99940
9515 OM 9515 OM OM1 9515 -0.550000 15.99940
9516 OM 9516 OM OM1 9516 -0.550000 15.99940
9517 OM 9517 OM OM1 9517 -0.550000 15.99940
9518 OM 9518 OM OM1 9518 -0.550000 15.99940
9519 OM 9519 OM OM1 9519 -0.550000 15.99940
9520 OM 9520 OM OM1 9520 -0.550000 15.99940
9521 OM 9521 OM OM1 9521 -0.550000 15.99940
9522 OM 9522 OM OM1 9522 -0.550000 15.99940
9523 OM 9523 OM OM1 9523 -0.550000 15.99940
9524 OM 9524 OM OM1 9524 -0.550000 15.99940
9525 OM 9525 OM OM1 9525 -0.550000 15.99940
9526 OM 9526 OM OM1 9526 -0.550000 15.99940
9527 OM 9527 OM OM1 9527 -0.550000 15.99940
9528 OM 9528 OM OM1 9528 -0.550000 15.99940
9529 OM 9529 OM OM1 9529 -0.550000 15.99940
9530 OM 9530 OM OM1 9530 -0.550000 15.99940
9531 OM 9531 OM OM1 9531 -0.550000 15.99940
9532 OM 9532 OM OM1 9532 -0.550000 15.99940
9533 OM 9533 OM OM1 9533 -0.550000 15.99940
9534 OM 9534 OM OM1 9534 -0.550000 15.99940
9535 OM 9535 OM OM1 9535 -0.550000 15.99940
9536 OM 9536 OM OM1 9536 -0.550000 15.99940
9537 OM 9537 OM OM1 9537 -0.550000 15.99940
9538 OM 9538 OM OM1 9538 -0.550000 15.99940
9539 OM 9539 OM OM1 9539 -0.550000 15.99940
9540 OM 9540 OM OM1 9540 -0.550000 15.99940
9541 OM 9541 OM OM1 9541 -0.550000 15.99940
9542 OM 9542 OM OM1 9542 -0.550000 15.99940
9543 OM 9543 OM OM1 9543 -0.550000 15.99940
9544 OM 9544 OM OM1 9544 -0.550000 15.99940
9545 OM 9545 OM OM1 9545 -0.550000 15.99940
9546 OM 9546 OM OM1 9546 -0.550000 15.99940
9547 OM 9547 OM OM1 9547 -0.550000 15.99940
9548 OM 9548 OM OM1 9548 -0.550000 15.99940
9549 OM 9549 OM OM1 9549 -0.550000 15.99940
9550 OM 9550 OM OM1 9550 -0.550000 15.99940
9551 OM 9551 OM OM1 9551 -0.550000 15.99940
9552 OM 9552 OM OM1 9552 -0.550000 15.99940
9553 OM 9553 OM OM1 9553 -0.550000 15.99940
9554 OM 9554 OM OM1 9554 -0.550000 15.99940
9555 OM 9555 OM OM1 9555 -0.550000 15.99940
9556 OM 9556 OM OM1 9556 -0.550000 15.99940
9557 OM 9557 OM OM1 9557 -0.550000 15.99940
9558 OM 9558 OM OM1 9558 -0.550000 15.99940
9559 OM 9559 OM OM1 9559 -0.550000 15.99940
9560 OM 9560 OM OM1 9560 -0.550000 15.99940
9561 OM 9561 OM OM1 9561 -0.550000 15.99940
9562 OM 9562 OM OM1 9562 -0.550000 15.99940
9563 OM 9563 OM OM1 9563 -0.550000 15.99940
9564 OM 9564 OM OM1 9564 -0.550000 15.99940
9565 OM 9565 OM OM1 9565 -0.550000 15.99940
9566 OM 9566 OM OM1 9566 -0.550000 15.99940
9567 OM 9567 OM OM1 9567 -0.550000 15.99940
9568 OM 9568 OM OM1 9568 -0.550000 15.99940
9569 OM 9569 OM OM1 9569 -0.550000 15.99940
9570 OM 9570 OM OM1 9570 -0.550000 15.99940
9571 OM 9571 OM OM1 9571 -0.550000 15.99940
9572 OM 9572 OM OM1 9572 -0.550000 15.99940
9573 OM 9573 OM OM1 9573 -0.550000 15.99940
9574 OM 9574 OM OM1 9574 -0.550000 15.99940
9575 OM 9575 OM OM1 9575 -0.550000 15.99940
9576 OM 9576 OM OM1 9576 -0.550000 15.99940
9577 OM 9577 OM OM1 9577 -0.550000 15.99940
9578 OM 9578 OM OM1 9578 -0.550000 15.99940
9579 OM 9579 OM OM1 9579 -0.550000 15.99940
9580 OM 9580 OM OM1 9580 -0.550000 15.99940
9581 OM 9581 OM OM1 9581 -0.550000 15.99940
9582 OM 9582 OM OM1 9582 -0.550000 15.99940
9583 OM 9583 OM OM1 9583 -0.550000 15.99940
9584 OM 9584 OM OM1 9584 -0.550000 15.99940
9585 OM 9585 OM OM1 9585 -0.550000 15.99940
9586 OM 9586 OM OM1 9586 -0.550000 15.99940
9587 OM 9587 OM OM1 9587 -0.550000 15.99940
9588 OM 9588 OM OM1 9588 -0.550000 15.99940
9589 OM 9589 OM OM1 9589 -0.550000 15.99940
9590 OM 9590 OM OM1 9590 -0.550000 15.99940
9591 OM 9591 OM OM1 9591 -0.550000 15.99940
9592 OM 9592 OM OM1 9592 -0.550000 15.99940
9593 OM 9593 OM OM1 9593 -0.550000 15.99940
9594 OM 9594 OM OM1 9594 -0.550000 15.99940
9595 OM 9595 OM OM1 9595 -0.550000 15.99940
9596 OM 9596 OM OM1 9596 -0.550000 15.99940
9597 OM 9597 OM OM1 9597 -0.550000 15.99940
9598 OM 9598 OM OM1 9598 -0.550000 15.99940
9599 OM 9599 OM OM1 9599 -0.550000 15.99940
9600 OM 9600 OM OM1 9600 -0.550000 15.99940
9601 OM 9601 OM OM1 9601 -0.550000 15.99940
9602 OM 9602 OM OM1 9602 -0.550000 15.99940
9603 OM 9603 OM OM1 9603 -0.550000 15.99940
9604 OM 9604 OM OM1 9604 -0.550000 15.99940
9605 OM 9605 OM OM1 9605 -0.550000 15.99940
9606 OM 9606 OM OM1 9606 -0.550000 15.99940
9607 OM 9607 OM OM1 9607 -0.550000 15.99940
9608 OM 9608 OM OM1 9608 -0.550000 15.99940
9609 OM 9609 OM OM1 9609 -0.550000 15.99940
9610 OM 9610 OM OM1 9610 -0.550000 15.99940
9611 OM 9611 OM OM1 9611 -0.550000 15.99940
9612 OM 9612 OM OM1 9612 -0.550000 15.99940
9613 OM 9613 OM OM1 9613 -0.550000 15.99940
9614 OM 9614 OM OM1 9614 -0.550000 15.99940
9615 OM 9615 OM OM1 9615 -0.550000 15.99940
9616 OM 9616 OM OM1 9616 -0.550000 15.99940
9617 OM 9617 OM OM1 9617 -0.550000 15.99940
9618 OM 9618 OM OM1 9618 -0.550000 15.99940
9619 OM 9619 OM OM1 9619 -0.550000 15.99940
9620 OM 9620 OM OM1 9620 -0.550000 15.99940
9621 OM 9621 OM OM1 9621 -0.550000 15.99940
9622 OM 9622 OM OM1 9622 -0.550000 15.99940
9623 OM 9623 OM OM1 9623 -0.550000 15.99940
9624 OM 9624 OM OM1 9624 -0.550000 15.99940
9625 OM 9625 OM OM1 9625 -0.550000 15.99940
9626 OM 9626 OM OM1 9626 -0.550000 15.99940
9627 OM 9627 OM OM1 9627 -0.550000 15.99940
9628 OM 9628 OM OM1 9628 -0.550000 15.99940
9629 OM 9629 OM OM1 9629 -0.550000 15.99940
9630 OM 9630 OM OM1 9630 -0.550000 15.99940
9631 OM 9631 OM OM1 9631 -0.550000 15.99940
9632 OM 9632 OM OM1 9632 -0.550000 15.99940
9633 OM 9633 OM OM1 9633 -0.550000 15.99940
9634 OM 9634 OM OM1 9634 -0.550000 15.99940
9635 OM 9635 OM OM1 9635 -0.550000 15.99940
9636 OM 9636 OM OM1 9636 -0.550000 15.99940
9637 OM 9637 OM OM1 9637 -0.550000 15.99940
9638 OM 9638 OM OM1 9638 -0.550000 15.99940
9639 OM 9639 OM OM1 9639 -0.550000 15.99940
9640 OM 9640 OM OM1 9640 -0.550000 15.99940
9641 OM 9641 OM OM1 9641 -0.550000 15.99940
9642 OM 9642 OM OM1 9642 -0.550000 15.99940
9643 OM 9643 OM OM1 9643 -0.550000 15.99940
9644 OM 9644 OM OM1 9644 -0.550000 15.99940
9645 OM 9645 OM OM1 9645 -0.550000 15.99940
9646 OM 9646 OM OM1 9646 -0.550000 15.99940
9647 OM 9647 OM OM1 9647 -0.550000 15.99940
9648 OM 9648 OM OM1 9648 -0.550000 15.99940
9649 OM 9649 OM OM1 9649 -0.550000 15.99940
9650 OM 9650 OM OM1 9650 -0.550000 15.99940
9651 OM 9651 OM OM1 9651 -0.550000 15.99940
9652 OM 9652 OM OM1 9652 -0.550000 15.99940
9653 OM 9653 OM OM1 9653 -0.550000 15.99940
9654 OM 9654 OM OM1 9654 -0.550000 15.99940
9655 OM 9655 OM OM1 9655 -0.550000 15.99940
9656 OM 9656 OM OM1 9656 -0.550000 15.99940
9657 OM 9657 OM OM1 9657 -0.550000 15.99940
9658 OM 9658 OM OM1 9658 -0.550000 15.99940
9659 OM 9659 OM OM1 9659 -0.550000 15.99940
9660 OM 9660 OM OM1 9660 -0.550000 15.99940
9661 OM 9661 OM OM1 9661 -0.550000 15.99940
9662 OM 9662 OM OM1 9662 -0.550000 15.99940
9663 OM 9663 OM OM1 9663 -0.550000 15.99940
9664 OM 9664 OM OM1 9664 -0.550000 15.99940
9665 OM 9665 OM OM1 9665 -0.550000 15.99940
9666 OM 9666 OM OM1 9666 -0.550000 15.99940
9667 OM 9667 OM OM1 9667 -0.550000 15.99940
9668 OM 9668 OM OM1 9668 -0.550000 15.99940
9669 OM 9669 OM OM1 9669 -0.550000 15.99940
9670 OM 9670 OM OM1 9670 -0.550000 15.99940
9671 OM 9671 OM OM1 9671 -0.550000 15.99940
9672 OM 9672 OM OM1 9672 -0.550000 15.99940
9673 OM 9673 OM OM1 9673 -0.550000 15.99940
9674 OM 9674 OM OM1 9674 -0.550000 15.99940
9675 OM 9675 OM OM1 9675 -0.550000 15.99940
9676 OM 9676 OM OM1 9676 -0.550000 15.99940
9677 OM 9677 OM OM1 9677 -0.550000 15.99940
9678 OM 9678 OM OM1 9678 -0.550000 15.99940
9679 OM 9679 OM OM1 9679 -0.550000 15.99940
9680 OM 9680 OM OM1 9680 -0.550000 15.99940
9681 OM 9681 OM OM1 9681 -0.550000 15.99940
9682 OM 9682 OM OM1 9682 -0.550000 15.99940
9683 OM 9683 OM OM1 9683 -0.550000 15.99940
9684 OM 9684 OM OM1 9684 -0.550000 15.99940
9685 OM 9685 OM OM1 9685 -0.550000 15.99940
9686 OM 9686 OM OM1 9686 -0.550000 15.99940
9687 OM 9687 OM OM1 9687 -0.550000 15.99940
9688 OM 9688 OM OM1 9688 -0.550000 15.99940
9689 OM 9689 OM OM1 9689 -0.550000 15.99940
9690 OM 9690 OM OM1 9690 -0.550000 15.99940
9691 OM 9691 OM OM1 9691 -0.550000 15.99940
9692 OM 9692 OM OM1 9692 -0.550000 15.99940
9693 OM 9693 OM OM1 9693 -0.550000 15.99940
9694 OM 9694 OM OM1 9694 -0.550000 15.99940
9695 OM 9695 OM OM1 9695 -0.550000 15.99940
9696 OM 9696 OM OM1 9696 -0.550000 15.99940
9697 OM 9697 OM OM1 9697 -0.550000 15.99940
9698 OM 9698 OM OM1 9698 -0.550000 15.99940
9699 OM 9699 OM OM1 9699 -0.550000 15.99940
9700 OM 9700 OM OM1 9700 -0.550000 15.99940
9701 OM 9701 OM OM1 9701 -0.550000 15.99940
9702 OM 9702 OM OM1 9702 -0.550000 15.99940
9703 OM 9703 OM OM1 9703 -0.550000 15.99940
9704 OM 9704 OM OM1 9704 -0.550000 15.99940
9705 OM 9705 OM OM1 9705 -0.550000 15.99940
9706 OM 9706 OM OM1 9706 -0.550000 15.99940
9707 OM 9707 OM OM1 9707 -0.550000 15.99940
9708 OM 9708 OM OM1 9708 -0.550000 15.99940
9709 OM 9709 OM OM1 9709 -0.550000 15.99940
9710 OM 9710 OM OM1 9710 -0.550000 15.99940
9711 OM 9711 OM OM1 9711 -0.550000 15.99940
9712 OM 9712 OM OM1 9712 -0.550000 15.99940
9713 OM 9713 OM OM1 9713 -0.550000 15.99940
9714 OM 9714 OM OM1 9714 -0.550000 15.99940
9715 OM 9715 OM OM1 9715 -0.550000 15.99940
9716 OM 9716 OM OM1 9716 -0.550000 15.99940
9717 OM 9717 OM OM1 9717 -0.550000 15.99940
9718 OM 9718 OM OM1 9718 -0.550000 15.99940
9719 OM 9719 OM OM1 9719 -0.550000 15.99940
9720 OM 9720 OM OM1 9720 -0.550000 15.99940
9721 OM 9721 OM OM1 9721 -0.550000 15.99940
9722 OM 9722 OM OM1 9722 -0.550000 15.99940
9723 OM 9723 OM OM1 9723 -0.550000 15.99940
9724 OM 9724 OM OM1 9724 -0.550000 15.99940
9725 OM 9725 OM OM1 9725 -0.550000 15.99940
9726 OM 9726 OM OM1 9726 -0.550000 15.99940
9727 OM 9727 OM OM1 9727 -0.550000 15.99940
9728 OM 9728 OM OM1 9728 -0.550000 15.99940
9729 OM 9729 OM OM1 9729 -0.550000 15.99940
9730 OM 9730 OM OM1 9730 -0.550000 15.99940
9731 OM 9731 OM OM1 9731 -0.550000 15.99940
9732 OM 9732 OM OM1 9732 -0.550000 15.99940
9733 OM 9733 OM OM1 9733 -0.550000 15.99940
9734 OM 9734 OM OM1 9734 -0.550000 15.99940
9735 OM 9735 OM OM1 9735 -0.550000 15.99940
9736 OM 9736 OM OM1 9736 -0.550000 15.99940
9737 OM 9737 OM OM1 9737 -0.550000 15.99940
9738 OM 9738 OM OM1 9738 -0.550000 15.99940
9739 OM 9739 OM OM1 9739 -0.550000 15.99940
9740 OM 9740 OM OM1 9740 -0.550000 15.99940
9741 OM 9741 OM OM1 9741 -0.550000 15.99940
9742 OM 9742 OM OM1 9742 -0.550000 15.99940
9743 OM 9743 OM OM1 9743 -0.550000 15.99940
9744 OM 9744 OM OM1 9744 -0.550000 15.99940
9745 OM 9745 OM OM1 9745 -0.550000 15.99940
9746 OM 9746 OM OM1 9746 -0.550000 15.99940
9747 OM 9747 OM OM1 9747 -0.550000 15.99940
9748 OM 9748 OM OM1 9748 -0.550000 15.99940
9749 OM 9749 OM OM1 9749 -0.550000 15.99940
9750 OM 9750 OM OM1 9750 -0.550000 15.99940
9751 OM 9751 OM OM1 9751 -0.550000 15.99940
9752 OM 9752 OM OM1 9752 -0.550000 15.99940
9753 OM 9753 OM OM1 9753 -0.550000 15.99940
9754 OM 9754 OM OM1 9754 -0.550000 15.99940
9755 OM 9755 OM OM1 9755 -0.550000 15.99940
9756 OM 9756 OM OM1 9756 -0.550000 15.99940
9757 OM 9757 OM OM1 9757 -0.550000 15.99940
9758 OM 9758 OM OM1 9758 -0.550000 15.99940
9759 OM 9759 OM OM1 9759 -0.550000 15.99940
9760 OM 9760 OM OM1 9760 -0.550000 15.99940
9761 OM 9761 OM OM1 9761 -0.550000 15.99940
9762 OM 9762 OM OM1 9762 -0.550000 15.99940
9763 OM 9763 OM OM1 9763 -0.550000 15.99940
9764 OM 9764 OM OM1 9764 -0.550000 15.99940
9765 OM 9765 OM OM1 9765 -0.550000 15.99940
9766 OM 9766 OM OM1 9766 -0.550000 15.99940
9767 OM 9767 OM OM1 9767 -0.550000 15.99940
9768 OM 9768 OM OM1 9768 -0.550000 15.99940
9769 OM 9769 OM OM1 9769 -0.550000 15.99940
9770 OM 9770 OM OM1 9770 -0.550000 15.99940
9771 OM 9771 OM OM1 9771 -0.550000 15.99940
9772 OM 9772 OM OM1 9772 -0.550000 15.99940
9773 OM 9773 OM OM1 9773 -0.550000 15.99940
9774 OM 9774 OM OM1 9774 -0.550000 15.99940
9775 OM 9775 OM OM1 9775 -0.550000 15.99940
9776 OM 9776 OM OM1 9776 -0.550000 15.99940
9777 OM 9777 OM OM1 9777 -0.550000 15.99940
9778 OM 9778 OM OM1 9778 -0.550000 15.99940
9779 OM 9779 OM OM1 9779 -0.550000 15.99940
9780 OM 9780 OM OM1 9780 -0.550000 15.99940
9781 OM 9781 OM OM1 9781 -0.550000 15.99940
9782 OM 9782 OM OM1 9782 -0.550000 15.99940
9783 OM 9783 OM OM1 9783 -0.550000 15.99940
9784 OM 9784 OM OM1 9784 -0.550000 15.99940
9785 OM 9785 OM OM1 9785 -0.550000 15.99940
9786 OM 9786 OM OM1 9786 -0.550000 15.99940
9787 OM 9787 OM OM1 9787 -0.550000 15.99940
9788 OM 9788 OM OM1 9788 -0.550000 15.99940
9789 OM 9789 OM OM1 9789 -0.550000 15.99940
9790 OM 9790 OM OM1 9790 -0.550000 15.99940
9791 OM 9791 OM OM1 9791 -0.550000 15.99940
9792 OM 9792 OM OM1 9792 -0.550000 15.99940
9793 OM 9793 OM OM1 9793 -0.550000 15.99940
9794 OM 9794 OM OM1 9794 -0.550000 15.99940
9795 OM 9795 OM OM1 9795 -0.550000 15.99940
9796 OM 9796 OM OM1 9796 -0.550000 15.99940
9797 OM 9797 OM OM1 9797 -0.550000 15.99940
9798 OM 9798 OM OM1 9798 -0.550000 15.99940
9799 OM 9799 OM OM1 9799 -0.550000 15.99940
9800 OM 9800 OM OM1 9800 -0.550000 15.99940
9801 OM 9801 OM OM1 9801 -0.550000 15.99940
9802 OM 9802 OM OM1 9802 -0.550000 15.99940
9803 OM 9803 OM OM1 9803 -0.550000 15.99940
9804 OM 9804 OM OM1 9804 -0.550000 15.99940
9805 OM 9805 OM OM1 9805 -0.550000 15.99940
9806 OM 9806 OM OM1 9806 -0.550000 15.99940
9807 OM 9807 OM OM1 9807 -0.550000 15.99940
9808 OM 9808 OM OM1 9808 -0.550000 15.99940
9809 OM 9809 OM OM1 9809 -0.550000 15.99940
9810 OM 9810 OM OM1 9810 -0.550000 15.99940
9811 OM 9811 OM OM1 9811 -0.550000 15.99940
9812 OM 9812 OM OM1 9812 -0.550000 15.99940
9813 OM 9813 OM OM1 9813 -0.550000 15.99940
9814 OM 9814 OM OM1 9814 -0.550000 15.99940
9815 OM 9815 OM OM1 9815 -0.550000 15.99940
9816 OM 9816 OM OM1 9816 -0.550000 15.99940
9817 OM 9817 OM OM1 9817 -0.550000 15.99940
9818 OM 9818 OM OM1 9818 -0.550000 15.99940
9819 OM 9819 OM OM1 9819 -0.550000 15.99940
9820 OM 9820 OM OM1 9820 -0.550000 15.99940
9821 OM 9821 OM OM1 9821 -0.550000 15.99940
9822 OM 9822 OM OM1 9822 -0.550000 15.99940
9823 OM 9823 OM OM1 9823 -0.550000 15.99940
9824 OM 9824 OM OM1 9824 -0.550000 15.99940
9825 OM 9825 OM OM1 9825 -0.550000 15.99940
9826 OM 9826 OM OM1 9826 -0.550000 15.99940
9827 OM 9827 OM OM1 9827 -0.550000 15.99940
9828 OM 9828 OM OM1 9828 -0.550000 15.99940
9829 OM 9829 OM OM1 9829 -0.550000 15.99940
9830 OM 9830 OM OM1 9830 -0.550000 15.99940
9831 OM 9831 OM OM1 9831 -0.550000 15.99940
9832 OM 9832 OM OM1 9832 -0.550000 15.99940
9833 OM 9833 OM OM1 9833 -0.550000 15.99940
9834 OM 9834 OM OM1 9834 -0.550000 15.99940
9835 OM 9835 OM OM1 9835 -0.550000 15.99940
9836 OM 9836 OM OM1 9836 -0.550000 15.99940
9837 OM 9837 OM OM1 9837 -0.550000 15.99940
9838 OM 9838 OM OM1 9838 -0.550000 15.99940
9839 OM 9839 OM OM1 9839 -0.550000 15.99940
9840 OM 9840 OM OM1 9840 -0.550000 15.99940
9841 OM 9841 OM OM1 9841 -0.550000 15.99940
9842 OM 9842 OM OM1 9842 -0.550000 15.99940
9843 OM 9843 OM OM1 9843 -0.550000 15.99940
9844 OM 9844 OM OM1 9844 -0.550000 15.99940
9845 OM 9845 OM OM1 9845 -0.550000 15.99940
9846 OM 9846 OM OM1 9846 -0.550000 15.99940
9847 OM 9847 OM OM1 9847 -0.550000 15.99940
9848 OM 9848 OM OM1 9848 -0.550000 15.99940
9849 OM 9849 OM OM1 9849 -0.550000 15.99940
9850 OM 9850 OM OM1 9850 -0.550000 15.99940
9851 OM 9851 OM OM1 9851 -0.550000 15.99940
9852 OM 9852 OM OM1 9852 -0.550000 15.99940
9853 OM 9853 OM OM1 9853 -0.550000 15.99940
9854 OM 9854 OM OM1 9854 -0.550000 15.99940
9855 OM 9855 OM OM1 9855 -0.550000 15.99940
9856 OM 9856 OM OM1 9856 -0.550000 15.99940
9857 OM 9857 OM OM1 9857 -0.550000 15.99940
9858 OM 9858 OM OM1 9858 -0.550000 15.99940
9859 OM 9859 OM OM1 9859 -0.550000 15.99940
9860 OM 9860 OM OM1 9860 -0.550000 15.99940
9861 OM 9861 OM OM1 9861 -0.550000 15.99940
9862 OM 9862 OM OM1 9862 -0.550000 15.99940
9863 OM 9863 OM OM1 9863 -0.550000 15.99940
9864 OM 9864 OM OM1 9864 -0.550000 15.99940
9865 OM 9865 OM OM1 9865 -0.550000 15.99940
9866 OM 9866 OM OM1 9866 -0.550000 15.99940
9867 OM 9867 OM OM1 9867 -0.550000 15.99940
9868 OM 9868 OM OM1 9868 -0.550000 15.99940
9869 OM 9869 OM OM1 9869 -0.550000 15.99940
9870 OM 9870 OM OM1 9870 -0.550000 15.99940
9871 OM 9871 OM OM1 9871 -0.550000 15.99940
9872 OM 9872 OM OM1 9872 -0.550000 15.99940
9873 OM 9873 OM OM1 9873 -0.550000 15.99940
9874 OM 9874 OM OM1 9874 -0.550000 15.99940
9875 OM 9875 OM OM1 9875 -0.550000 15.99940
9876 OM 9876 OM OM1 9876 -0.550000 15.99940
9877 OM 9877 OM OM1 9877 -0.550000 15.99940
9878 OM 9878 OM OM1 9878 -0.550000 15.99940
9879 OM 9879 OM OM1 9879 -0.550000 15.99940
9880 OM 9880 OM OM1 9880 -0.550000 15.99940
9881 OM 9881 OM OM1 9881 -0.550000 15.99940
9882 OM 9882 OM OM1 9882 -0.550000 15.99940
9883 OM 9883 OM OM1 9883 -0.550000 15.99940
9884 OM 9884 OM OM1 9884 -0.550000 15.99940
9885 OM 9885 OM OM1 9885 -0.550000 15.99940
9886 OM 9886 OM OM1 9886 -0.550000 15.99940
9887 OM 9887 OM OM1 9887 -0.550000 15.99940
9888 OM 9888 OM OM1 9888 -0.550000 15.99940
9889 OM 9889 OM OM1 9889 -0.550000 15.99940
9890 OM 9890 OM OM1 9890 -0.550000 15.99940
9891 OM 9891 OM OM1 9891 -0.550000 15.99940
9892 OM 9892 OM OM1 9892 -0.550000 15.99940
9893 OM 9893 OM OM1 9893 -0.550000 15.99940
9894 OM 9894 OM OM1 9894 -0.550000 15.99940
9895 OM 9895 OM OM1 9895 -0.550000 15.99940
9896 OM 9896 OM OM1 9896 -0.550000 15.99940
9897 OM 9897 OM OM1 9897 -0.550000 15.99940
9898 OM 9898 OM OM1 9898 -0.550000 15.99940
9899 OM 9899 OM OM1 9899 -0.550000 15.99940
9900 OM 9900 OM OM1 9900 -0.550000 15.99940
9901 OM 9901 OM OM1 9901 -0.550000 15.99940
9902 OM 9902 OM OM1 9902 -0.550000 15.99940
9903 OM 9903 OM OM1 9903 -0.550000 15.99940
9904 OM 9904 OM OM1 9904 -0.550000 15.99940
9905 OM 9905 OM OM1 9905 -0.550000 15.99940
9906 OM 9906 OM OM1 9906 -0.550000 15.99940
9907 OM 9907 OM OM1 9907 -0.550000 15.99940
9908 OM 9908 OM OM1 9908 -0.550000 15.99940
9909 OM 9909 OM OM1 9909 -0.550000 15.99940
9910 OM 9910 OM OM1 9910 -0.550000 15.99940
9911 OM 9911 OM OM1 9911 -0.550000 15.99940
9912 OM 9912 OM OM1 9912 -0.550000 15.99940
9913 OM 9913 OM OM1 9913 -0.550000 15.99940
9914 OM 9914 OM OM1 9914 -0.550000 15.99940
9915 OM 9915 OM OM1 9915 -0.550000 15.99940
9916 OM 9916 OM OM1 9916 -0.550000 15.99940
9917 OM 9917 OM OM1 9917 -0.550000 15.99940
9918 OM 9918 OM OM1 9918 -0.550000 15.99940
9919 OM 9919 OM OM1 9919 -0.550000 15.99940
9920 OM 9920 OM OM1 9920 -0.550000 15.99940
9921 OM 9921 OM OM1 9921 -0.550000 15.99940
9922 OM 9922 OM OM1 9922 -0.550000 15.99940
9923 OM 9923 OM OM1 9923 -0.550000 15.99940
9924 OM 9924 OM OM1 9924 -0.550000 15.99940
9925 OM 9925 OM OM1 9925 -0.550000 15.99940
9926 OM 9926 OM OM1 9926 -0.550000 15.99940
9927 OM 9927 OM OM1 9927 -0.550000 15.99940
9928 OM 9928 OM OM1 9928 -0.550000 15.99940
9929 OM 9929 OM OM1 9929 -0.550000 15.99940
9930 OM 9930 OM OM1 9930 -0.550000 15.99940
9931 OM 9931 OM OM1 9931 -0.550000 15.99940
9932 OM 9932 OM OM1 9932 -0.550000 15.99940
9933 OM 9933 OM OM1 9933 -0.550000 15.99940
9934 OM 9934 OM OM1 9934 -0.550000 15.99940
9935 OM 9935 OM OM1 9935 -0.550000 15.99940
9936 OM 9936 OM OM1 9936 -0.550000 15.99940
9937 OM 9937 OM OM1 9937 -0.550000 15.99940
9938 OM 9938 OM OM1 9938 -0.550000 15.99940
9939 OM 9939 OM OM1 9939 -0.550000 15.99940
9940 OM 9940 OM OM1 9940 -0.550000 15.99940
9941 OM 9941 OM OM1 9941 -0.550000 15.99940
9942 OM 9942 OM OM1 9942 -0.550000 15.99940
9943 OM 9943 OM OM1 9943 -0.550000 15.99940
9944 OM 9944 OM OM1 9944 -0.550000 15.99940
9945 OM 9945 OM OM1 9945 -0.550000 15.99940
9946 OM 9946 OM OM1 9946 -0.550000 15.99940
9947 OM 9947 OM OM1 9947 -0.550000 15.99940
9948 OM 9948 OM OM1 9948 -0.550000 15.99940
9949 OM 9949 OM OM1 9949 -0.550000 15.99940
9950 OM 9950 OM OM1 9950 -0.550000 15.99940
9951 OM 9951 OM OM1 9951 -0.550000 15.99940
9952 OM 9952 OM OM1 9952 -0.550000 15.99940
9953 OM 9953 OM OM1 9953 -0.550000 15.99940
9954 OM 9954 OM OM1 9954 -0.550000 15.99940
9955 OM 9955 OM OM1 9955 -0.550000 15.99940
9956 OM 9956 OM OM1 9956 -0.550000 15.99940
9957 OM 9957 OM OM1 9957 -0.550000 15.99940
9958 OM 9958 OM OM1 9958 -0.550000 15.99940
9959 OM 9959 OM OM1 9959 -0.550000 15.99940
9960 OM 9960 OM OM1 9960 -0.550000 15.99940
9961 OM 9961 OM OM1 9961 -0.550000 15.99940
9962 OM 9962 OM OM1 9962 -0.550000 15.99940
9963 OM 9963 OM OM1 9963 -0.550000 15.99940
9964 OM 9964 OM OM1 9964 -0.550000 15.99940
9965 OM 9965 OM OM1 9965 -0.550000 15.99940
9966 OM 9966 OM OM1 9966 -0.550000 15.99940
9967 OM 9967 OM OM1 9967 -0.550000 15.99940
9968 OM 9968 OM OM1 9968 -0.550000 15.99940
9969 OM 9969 OM OM1 9969 -0.550000 15.99940
9970 OM 9970 OM OM1 9970 -0.550000 15.99940
9971 OM 9971 OM OM1 9971 -0.550000 15.99940
9972 OM 9972 OM OM1 9972 -0.550000 15.99940
9973 OM 9973 OM OM1 9973 -0.550000 15.99940
9974 OM 9974 OM OM1 9974 -0.550000 15.99940
9975 OM 9975 OM OM1 9975 -0.550000 15.99940
9976 OM 9976 OM OM1 9976 -0.550000 15.99940
9977 OM 9977 OM OM1 9977 -0.550000 15.99940
9978 OM 9978 OM OM1 9978 -0.550000 15.99940
9979 OM 9979 OM OM1 9979 -0.550000 15.99940
9980 OM 9980 OM OM1 9980 -0.550000 15.99940
9981 OM 9981 OM OM1 9981 -0.550000 15.99940
9982 OM 9982 OM OM1 9982 -0.550000 15.99940
9983 OM 9983 OM OM1 9983 -0.550000 15.99940
9984 OM 9984 OM OM1 9984 -0.550000 15.99940
9985 OM 9985 OM OM1 9985 -0.550000 15.99940
9986 OM 9986 OM OM1 9986 -0.550000 15.99940
9987 OM 9987 OM OM1 9987 -0.550000 15.99940
9988 OM 9988 OM OM1 9988 -0.550000 15.99940
9989 OM 9989 OM OM1 9989 -0.550000 15.99940
9990 OM 9990 OM OM1 9990 -0.550000 15.99940
9991 OM 9991 OM OM1 9991 -0.550000 15.99940
9992 OM 9992 OM OM1 9992 -0.550000 15.99940
9993 OM 9993 OM OM1 9993 -0.550000 15.99940
9994 OM 9994 OM OM1 9994 -0.550000 15.99940
9995 OM 9995 OM OM1 9995 -0.550000 15.99940
9996 OM 9996 OM OM1 9996 -0.550000 15.99940
9997 OM 9997 OM OM1 9997 -0.550000 15.99940
9998 OM 9998 OM OM1 9998 -0.550000 15.99940
9999 OM 9999 OM OM1 9999 -0.550000 15.99940
10000 OM 10000 OM OM1 10000 -0.550000 15.99940
10001 OM 10001 OM OM1 10001 -0.550000 15.99940
10002 OM 10002 OM OM1 10002 -0.550000 15.99940
10003 OM 10003 OM OM1 10003 -0.550000 15.99940
10004 OM 10004 OM OM1 10004 -0.550000 15.99940
10005 OM 10005 OM OM1 10005 -0.550000 15.99940
10006 OM 10006 OM OM1 10006 -0.550000 15.99940
10007 OM 10007 OM OM1 10007 -0.550000 15.99940
10008 OM 10008 OM OM1 10008 -0.550000 15.99940
10009 OM 10009 OM OM1 10009 -0.550000 15.99940
10010 OM 10010 OM OM1 10010 -0.550000 15.99940
10011 OM 10011 OM OM1 10011 -0.550000 15.99940
10012 OM 10012 OM OM1 10012 -0.550000 15.99940
10013 OM 10013 OM OM1 10013 -0.550000 15.99940
10014 OM 10014 OM OM1 10014 -0.550000 15.99940
10015 OM 10015 OM OM1 10015 -0.550000 15.99940
10016 OM 10016 OM OM1 10016 -0.550000 15.99940
10017 OM 10017 OM OM1 10017 -0.550000 15.99940
10018 OM 10018 OM OM1 10018 -0.550000 15.99940
10019 OM 10019 OM OM1 10019 -0.550000 15.99940
10020 OM 10020 OM OM1 10020 -0.550000 15.99940
10021 OM 10021 OM OM1 10021 -0.550000 15.99940
10022 OM 10022 OM OM1 10022 -0.550000 15.99940
10023 OM 10023 OM OM1 10023 -0.550000 15.99940
10024 OM 10024 OM OM1 10024 -0.550000 15.99940
10025 OM 10025 OM OM1 10025 -0.550000 15.99940
10026 OM 10026 OM OM1 10026 -0.550000 15.99940
10027 OM 10027 OM OM1 10027 -0.550000 15.99940
10028 OM 10028 OM OM1 10028 -0.550000 15.99940
10029 OM 10029 OM OM1 10029 -0.550000 15.99940
10030 OM 10030 OM OM1 10030 -0.550000 15.99940
10031 OM 10031 OM OM1 10031 -0.550000 15.99940
10032 OM 10032 OM OM1 10032 -0.550000 15.99940
10033 OM 10033 OM OM1 10033 -0.550000 15.99940
10034 OM 10034 OM OM1 10034 -0.550000 15.99940
10035 OM 10035 OM OM1 10035 -0.550000 15.99940
10036 OM 10036 OM OM1 10036 -0.550000 15.99940
10037 OM 10037 OM OM1 10037 -0.550000 15.99940
10038 OM 10038 OM OM1 10038 -0.550000 15.99940
10039 OM 10039 OM OM1 10039 -0.550000 15.99940
10040 OM 10040 OM OM1 10040 -0.550000 15.99940
10041 OM 10041 OM OM1 10041 -0.550000 15.99940
10042 OM 10042 OM OM1 10042 -0.550000 15.99940
10043 OM 10043 OM OM1 10043 -0.550000 15.99940
10044 OM 10044 OM OM1 10044 -0.550000 15.99940
10045 OM 10045 OM OM1 10045 -0.550000 15.99940
10046 OM 10046 OM OM1 10046 -0.550000 15.99940
10047 OM 10047 OM OM1 10047 -0.550000 15.99940
10048 OM 10048 OM OM1 10048 -0.550000 15.99940
10049 OM 10049 OM OM1 10049 -0.550000 15.99940
10050 OM 10050 OM OM1 10050 -0.550000 15.99940
10051 OM 10051 OM OM1 10051 -0.550000 15.99940
10052 OM 10052 OM OM1 10052 -0.550000 15.99940
10053 OM 10053 OM OM1 10053 -0.550000 15.99940
10054 OM 10054 OM OM1 10054 -0.550000 15.99940
10055 OM 10055 OM OM1 10055 -0.550000 15.99940
10056 OM 10056 OM OM1 10056 -0.550000 15.99940
10057 OM 10057 OM OM1 10057 -0.550000 15.99940
10058 OM 10058 OM OM1 10058 -0.550000 15.99940
10059 OM 10059 OM OM1 10059 -0.550000 15.99940
10060 OM 10060 OM OM1 10060 -0.550000 15.99940
10061 OM 10061 OM OM1 10061 -0.550000 15.99940
10062 OM 10062 OM OM1 10062 -0.550000 15.99940
10063 OM 10063 OM OM1 10063 -0.550000 15.99940
10064 OM 10064 OM OM1 10064 -0.550000 15.99940
10065 OM 10065 OM OM1 10065 -0.550000 15.99940
10066 OM 10066 OM OM1 10066 -0.550000 15.99940
10067 OM 10067 OM OM1 10067 -0.550000 15.99940
10068 OM 10068 OM OM1 10068 -0.550000 15.99940
10069 OM 10069 OM OM1 10069 -0.550000 15.99940
10070 OM 10070 OM OM1 10070 -0.550000 15.99940
10071 OM 10071 OM OM1 10071 -0.550000 15.99940
10072 OM 10072 OM OM1 10072 -0.550000 15.99940
10073 OM 10073 OM OM1 10073 -0.550000 15.99940
10074 OM 10074 OM OM1 10074 -0.550000 15.99940
10075 OM 10075 OM OM1 10075 -0.550000 15.99940
10076 OM 10076 OM OM1 10076 -0.550000 15.99940
10077 OM 10077 OM OM1 10077 -0.550000 15.99940
10078 OM 10078 OM OM1 10078 -0.550000 15.99940
10079 OM 10079 OM OM1 10079 -0.550000 15.99940
10080 OM 10080 OM OM1 10080 -0.550000 15.99940
10081 OM 10081 OM OM1 10081 -0.550000 15.99940
10082 OM 10082 OM OM1 10082 -0.550000 15.99940
10083 OM 10083 OM OM1 10083 -0.550000 15.99940
10084 OM 10084 OM OM1 10084 -0.550000 15.99940
10085 OM 10085 OM OM1 10085 -0.550000 15.99940
10086 OM 10086 OM OM1 10086 -0.550000 15.99940
10087 OM 10087 OM OM1 10087 -0.550000 15.99940
10088 OM 10088 OM OM1 10088 -0.550000 15.99940
10089 OM 10089 OM OM1 10089 -0.550000 15.99940
10090 OM 10090 OM OM1 10090 -0.550000 15.99940
10091 OM 10091 OM OM1 10091 -0.550000 15.99940
10092 OM 10092 OM OM1 10092 -0.550000 15.99940
10093 OM 10093 OM OM1 10093 -0.550000 15.99940
10094 OM 10094 OM OM1 10094 -0.550000 15.99940
10095 OM 10095 OM OM1 10095 -0.550000 15.99940
10096 OM 10096 OM OM1 10096 -0.550000 15.99940
10097 OM 10097 OM OM1 10097 -0.550000 15.99940
10098 OM 10098 OM OM1 10098 -0.550000 15.99940
10099 OM 10099 OM OM1 10099 -0.550000 15.99940
10100 OM 10100 OM OM1 10100 -0.550000 15.99940
10101 OM 10101 OM OM1 10101 -0.550000 15.99940
10102 OM 10102 OM OM1 10102 -0.550000 15.99940
10103 OM 10103 OM OM1 10103 -0.550000 15.99940
10104 OM 10104 OM OM1 10104 -0.550000 15.99940
10105 OM 10105 OM OM1 10105 -0.550000 15.99940
10106 OM 10106 OM OM1 10106 -0.550000 15.99940
10107 OM 10107 OM OM1 10107 -0.550000 15.99940
10108 OM 10108 OM OM1 10108 -0.550000 15.99940
10109 OM 10109 OM OM1 10109 -0.550000 15.99940
10110 OM 10110 OM OM1 10110 -0.550000 15.99940
10111 OM 10111 OM OM1 10111 -0.550000 15.99940
10112 OM 10112 OM OM1 10112 -0.550000 15.99940
10113 OM 10113 OM OM1 10113 -0.550000 15.99940
10114 OM 10114 OM OM1 10114 -0.550000 15.99940
10115 OM 10115 OM OM1 10115 -0.550000 15.99940
10116 OM 10116 OM OM1 10116 -0.550000 15.99940
10117 OM 10117 OM OM1 10117 -0.550000 15.99940
10118 OM 10118 OM OM1 10118 -0.550000 15.99940
10119 OM 10119 OM OM1 10119 -0.550000 15.99940
10120 OM 10120 OM OM1 10120 -0.550000 15.99940
10121 OM 10121 OM OM1 10121 -0.550000 15.99940
10122 OM 10122 OM OM1 10122 -0.550000 15.99940
10123 OM 10123 OM OM1 10123 -0.550000 15.99940
10124 OM 10124 OM OM1 10124 -0.550000 15.99940
10125 OM 10125 OM OM1 10125 -0.550000 15.99940
10126 OM 10126 OM OM1 10126 -0.550000 15.99940
10127 OM 10127 OM OM1 10127 -0.550000 15.99940
10128 OM 10128 OM OM1 10128 -0.550000 15.99940
10129 OM 10129 OM OM1 10129 -0.550000 15.99940
10130 OM 10130 OM OM1 10130 -0.550000 15.99940
10131 OM 10131 OM OM1 10131 -0.550000 15.99940
10132 OM 10132 OM OM1 10132 -0.550000 15.99940
10133 OM 10133 OM OM1 10133 -0.550000 15.99940
10134 OM 10134 OM OM1 10134 -0.550000 15.99940
10135 OM 10135 OM OM1 10135 -0.550000 15.99940
10136 OM 10136 OM OM1 10136 -0.550000 15.99940
10137 OM 10137 OM OM1 10137 -0.550000 15.99940
10138 OM 10138 OM OM1 10138 -0.550000 15.99940
10139 OM 10139 OM OM1 10139 -0.550000 15.99940
10140 OM 10140 OM OM1 10140 -0.550000 15.99940
10141 OM 10141 OM OM1 10141 -0.550000 15.99940
10142 OM 10142 OM OM1 10142 -0.550000 15.99940
10143 OM 10143 OM OM1 10143 -0.550000 15.99940
10144 OM 10144 OM OM1 10144 -0.550000 15.99940
10145 OM 10145 OM OM1 10145 -0.550000 15.99940
10146 OM 10146 OM OM1 10146 -0.550000 15.99940
10147 OM 10147 OM OM1 10147 -0.550000 15.99940
10148 OM 10148 OM OM1 10148 -0.550000 15.99940
10149 OM 10149 OM OM1 10149 -0.550000 15.99940
10150 OM 10150 OM OM1 10150 -0.550000 15.99940
10151 OM 10151 OM OM1 10151 -0.550000 15.99940
10152 OM 10152 OM OM1 10152 -0.550000 15.99940
10153 OM 10153 OM OM1 10153 -0.550000 15.99940
10154 OM 10154 OM OM1 10154 -0.550000 15.99940
10155 OM 10155 OM OM1 10155 -0.550000 15.99940
10156 OM 10156 OM OM1 10156 -0.550000 15.99940
10157 OM 10157 OM OM1 10157 -0.550000 15.99940
10158 OM 10158 OM OM1 10158 -0.550000 15.99940
10159 OM 10159 OM OM1 10159 -0.550000 15.99940
10160 OM 10160 OM OM1 10160 -0.550000 15.99940
10161 OM 10161 OM OM1 10161 -0.550000 15.99940
10162 OM 10162 OM OM1 10162 -0.550000 15.99940
10163 OM 10163 OM OM1 10163 -0.550000 15.99940
10164 OM 10164 OM OM1 10164 -0.550000 15.99940
10165 OM 10165 OM OM1 10165 -0.550000 15.99940
10166 OM 10166 OM OM1 10166 -0.550000 15.99940
10167 OM 10167 OM OM1 10167 -0.550000 15.99940
10168 OM 10168 OM OM1 10168 -0.550000 15.99940
10169 OM 10169 OM OM1 10169 -0.550000 15.99940
10170 OM 10170 OM OM1 10170 -0.550000 15.99940
10171 OM 10171 OM OM1 10171 -0.550000 15.99940
10172 OM 10172 OM OM1 10172 -0.550000 15.99940
10173 OM 10173 OM OM1 10173 -0.550000 15.99940
10174 OM 10174 OM OM1 10174 -0.550000 15.99940
10175 OM 10175 OM OM1 10175 -0.550000 15.99940
10176 OM 10176 OM OM1 10176 -0.550000 15.99940
10177 OM 10177 OM OM1 10177 -0.550000 15.99940
10178 OM 10178 OM OM1 10178 -0.550000 15.99940
10179 OM 10179 OM OM1 10179 -0.550000 15.99940
10180 OM 10180 OM OM1 10180 -0.550000 15.99940
10181 OM 10181 OM OM1 10181 -0.550000 15.99940
10182 OM 10182 OM OM1 10182 -0.550000 15.99940
10183 OM 10183 OM OM1 10183 -0.550000 15.99940
10184 OM 10184 OM OM1 10184 -0.550000 15.99940
10185 OM 10185 OM OM1 10185 -0.550000 15.99940
10186 OM 10186 OM OM1 10186 -0.550000 15.99940
10187 OM 10187 OM OM1 10187 -0.550000 15.99940
10188 OM 10188 OM OM1 10188 -0.550000 15.99940
10189 OM 10189 OM OM1 10189 -0.550000 15.99940
10190 OM 10190 OM OM1 10190 -0.550000 15.99940
10191 OM 10191 OM OM1 10191 -0.550000 15.99940
10192 OM 10192 OM OM1 10192 -0.550000 15.99940
10193 OM 10193 OM OM1 10193 -0.550000 15.99940
10194 OM 10194 OM OM1 10194 -0.550000 15.99940
10195 OM 10195 OM OM1 10195 -0.550000 15.99940
10196 OM 10196 OM OM1 10196 -0.550000 15.99940
10197 OM 10197 OM OM1 10197 -0.550000 15.99940
10198 OM 10198 OM OM1 10198 -0.550000 15.99940
10199 OM 10199 OM OM1 10199 -0.550000 15.99940
10200 OM 10200 OM OM1 10200 -0.550000 15.99940
10201 OM 10201 OM OM1 10201 -0.550000 15.99940
10202 OM 10202 OM OM1 10202 -0.550000 15.99940
10203 OM 10203 OM OM1 10203 -0.550000 15.99940
10204 OM 10204 OM OM1 10204 -0.550000 15.99940
10205 OM 10205 OM OM1 10205 -0.550000 15.99940
10206 OM 10206 OM OM1 10206 -0.550000 15.99940
10207 OM 10207 OM OM1 10207 -0.550000 15.99940
10208 OM 10208 OM OM1 10208 -0.550000 15.99940
10209 OM 10209 OM OM1 10209 -0.550000 15.99940
10210 OM 10210 OM OM1 10210 -0.550000 15.99940
10211 OM 10211 OM OM1 10211 -0.550000 15.99940
10212 OM 10212 OM OM1 10212 -0.550000 15.99940
10213 OM 10213 OM OM1 10213 -0.550000 15.99940
10214 OM 10214 OM OM1 10214 -0.550000 15.99940
10215 OM 10215 OM OM1 10215 -0.550000 15.99940
10216 OM 10216 OM OM1 10216 -0.550000 15.99940
10217 OM 10217 OM OM1 10217 -0.550000 15.99940
10218 OM 10218 OM OM1 10218 -0.550000 15.99940
10219 OM 10219 OM OM1 10219 -0.550000 15.99940
10220 OM 10220 OM OM1 10220 -0.550000 15.99940
10221 OM 10221 OM OM1 10221 -0.550000 15.99940
10222 OM 10222 OM OM1 10222 -0.550000 15.99940
10223 OM 10223 OM OM1 10223 -0.550000 15.99940
10224 OM 10224 OM OM1 10224 -0.550000 15.99940
10225 OM 10225 OM OM1 10225 -0.550000 15.99940
10226 OM 10226 OM OM1 10226 -0.550000 15.99940
10227 OM 10227 OM OM1 10227 -0.550000 15.99940
10228 OM 10228 OM OM1 10228 -0.550000 15.99940
10229 OM 10229 OM OM1 10229 -0.550000 15.99940
10230 OM 10230 OM OM1 10230 -0.550000 15.99940
10231 OM 10231 OM OM1 10231 -0.550000 15.99940
10232 OM 10232 OM OM1 10232 -0.550000 15.99940
10233 OM 10233 OM OM1 10233 -0.550000 15.99940
10234 OM 10234 OM OM1 10234 -0.550000 15.99940
10235 OM 10235 OM OM1 10235 -0.550000 15.99940
10236 OM 10236 OM OM1 10236 -0.550000 15.99940
10237 OM 10237 OM OM1 10237 -0.550000 15.99940
10238 OM 10238 OM OM1 10238 -0.550000 15.99940
10239 OM 10239 OM OM1 10239 -0.550000 15.99940
10240 OM 10240 OM OM1 10240 -0.550000 15.99940
10241 OM 10241 OM OM1 10241 -0.550000 15.99940
10242 OM 10242 OM OM1 10242 -0.550000 15.99940
10243 OM 10243 OM OM1 10243 -0.550000 15.99940
10244 OM 10244 OM OM1 10244 -0.550000 15.99940
10245 OM 10245 OM OM1 10245 -0.550000 15.99940
10246 OM 10246 OM OM1 10246 -0.550000 15.99940
10247 OM 10247 OM OM1 10247 -0.550000 15.99940
10248 OM 10248 OM OM1 10248 -0.550000 15.99940
10249 OM 10249 OM OM1 10249 -0.550000 15.99940
10250 OM 10250 OM OM1 10250 -0.550000 15.99940
10251 OM 10251 OM OM1 10251 -0.550000 15.99940
10252 OM 10252 OM OM1 10252 -0.550000 15.99940
10253 OM 10253 OM OM1 10253 -0.550000 15.99940
10254 OM 10254 OM OM1 10254 -0.550000 15.99940
10255 OM 10255 OM OM1 10255 -0.550000 15.99940
10256 OM 10256 OM OM1 10256 -0.550000 15.99940
10257 OM 10257 OM OM1 10257 -0.550000 15.99940
10258 OM 10258 OM OM1 10258 -0.550000 15.99940
10259 OM 10259 OM OM1 10259 -0.550000 15.99940
10260 OM 10260 OM OM1 10260 -0.550000 15.99940
10261 OM 10261 OM OM1 10261 -0.550000 15.99940
10262 OM 10262 OM OM1 10262 -0.550000 15.99940
10263 OM 10263 OM OM1 10263 -0.550000 15.99940
10264 OM 10264 OM OM1 10264 -0.550000 15.99940
10265 OM 10265 OM OM1 10265 -0.550000 15.99940
10266 OM 10266 OM OM1 10266 -0.550000 15.99940
10267 OM 10267 OM OM1 10267 -0.550000 15.99940
10268 OM 10268 OM OM1 10268 -0.550000 15.99940
10269 OM 10269 OM OM1 10269 -0.550000 15.99940
10270 OM 10270 OM OM1 10270 -0.550000 15.99940
10271 OM 10271 OM OM1 10271 -0.550000 15.99940
10272 OM 10272 OM OM1 10272 -0.550000 15.99940
10273 OM 10273 OM OM1 10273 -0.550000 15.99940
10274 OM 10274 OM OM1 10274 -0.550000 15.99940
10275 OM 10275 OM OM1 10275 -0.550000 15.99940
10276 OM 10276 OM OM1 10276 -0.550000 15.99940
10277 OM 10277 OM OM1 10277 -0.550000 15.99940
10278 OM 10278 OM OM1 10278 -0.550000 15.99940
10279 OM 10279 OM OM1 10279 -0.550000 15.99940
10280 OM 10280 OM OM1 10280 -0.550000 15.99940
10281 OM 10281 OM OM1 10281 -0.550000 15.99940
10282 OM 10282 OM OM1 10282 -0.550000 15.99940
10283 OM 10283 OM OM1 10283 -0.550000 15.99940
10284 OM 10284 OM OM1 10284 -0.550000 15.99940
10285 OM 10285 OM OM1 10285 -0.550000 15.99940
10286 OM 10286 OM OM1 10286 -0.550000 15.99940
10287 OM 10287 OM OM1 10287 -0.550000 15.99940
10288 OM 10288 OM OM1 10288 -0.550000 15.99940
10289 OM 10289 OM OM1 10289 -0.550000 15.99940
10290 OM 10290 OM OM1 10290 -0.550000 15.99940
10291 OM 10291 OM OM1 10291 -0.550000 15.99940
10292 OM 10292 OM OM1 10292 -0.550000 15.99940
10293 OM 10293 OM OM1 10293 -0.550000 15.99940
10294 OM 10294 OM OM1 10294 -0.550000 15.99940
10295 OM 10295 OM OM1 10295 -0.550000 15.99940
10296 OM 10296 OM OM1 10296 -0.550000 15.99940
10297 OM 10297 OM OM1 10297 -0.550000 15.99940
10298 OM 10298 OM OM1 10298 -0.550000 15.99940
10299 OM 10299 OM OM1 10299 -0.550000 15.99940
10300 OM 10300 OM OM1 10300 -0.550000 15.99940
10301 OM 10301 OM OM1 10301 -0.550000 15.99940
10302 OM 10302 OM OM1 10302 -0.550000 15.99940
10303 OM 10303 OM OM1 10303 -0.550000 15.99940
10304 OM 10304 OM OM1 10304 -0.550000 15.99940
10305 OM 10305 OM OM1 10305 -0.550000 15.99940
10306 OM 10306 OM OM1 10306 -0.550000 15.99940
10307 OM 10307 OM OM1 10307 -0.550000 15.99940
10308 OM 10308 OM OM1 10308 -0.550000 15.99940
10309 OM 10309 OM OM1 10309 -0.550000 15.99940
10310 OM 10310 OM OM1 10310 -0.550000 15.99940
10311 OM 10311 OM OM1 10311 -0.550000 15.99940
10312 OM 10312 OM OM1 10312 -0.550000 15.99940
10313 OM 10313 OM OM1 10313 -0.550000 15.99940
10314 OM 10314 OM OM1 10314 -0.550000 15.99940
10315 OM 10315 OM OM1 10315 -0.550000 15.99940
10316 OM 10316 OM OM1 10316 -0.550000 15.99940
10317 OM 10317 OM OM1 10317 -0.550000 15.99940
10318 OM 10318 OM OM1 10318 -0.550000 15.99940
10319 OM 10319 OM OM1 10319 -0.550000 15.99940
10320 OM 10320 OM OM1 10320 -0.550000 15.99940
10321 OM 10321 OM OM1 10321 -0.550000 15.99940
10322 OM 10322 OM OM1 10322 -0.550000 15.99940
10323 OM 10323 OM OM1 10323 -0.550000 15.99940
10324 OM 10324 OM OM1 10324 -0.550000 15.99940
10325 OM 10325 OM OM1 10325 -0.550000 15.99940
10326 OM 10326 OM OM1 10326 -0.550000 15.99940
10327 OM 10327 OM OM1 10327 -0.550000 15.99940
10328 OM 10328 OM OM1 10328 -0.550000 15.99940
10329 OM 10329 OM OM1 10329 -0.550000 15.99940
10330 OM 10330 OM OM1 10330 -0.550000 15.99940
10331 OM 10331 OM OM1 10331 -0.550000 15.99940
10332 OM 10332 OM OM1 10332 -0.550000 15.99940
10333 OM 10333 OM OM1 10333 -0.550000 15.99940
10334 OM 10334 OM OM1 10334 -0.550000 15.99940
10335 OM 10335 OM OM1 10335 -0.550000 15.99940
10336 OM 10336 OM OM1 10336 -0.550000 15.99940
10337 OM 10337 OM OM1 10337 -0.550000 15.99940
10338 OM 10338 OM OM1 10338 -0.550000 15.99940
10339 OM 10339 OM OM1 10339 -0.550000 15.99940
10340 OM 10340 OM OM1 10340 -0.550000 15.99940
10341 OM 10341 OM OM1 10341 -0.550000 15.99940
10342 OM 10342 OM OM1 10342 -0.550000 15.99940
10343 OM 10343 OM OM1 10343 -0.550000 15.99940
10344 OM 10344 OM OM1 10344 -0.550000 15.99940
10345 OM 10345 OM OM1 10345 -0.550000 15.99940
10346 OM 10346 OM OM1 10346 -0.550000 15.99940
10347 OM 10347 OM OM1 10347 -0.550000 15.99940
10348 OM 10348 OM OM1 10348 -0.550000 15.99940
10349 OM 10349 OM OM1 10349 -0.550000 15.99940
10350 OM 10350 OM OM1 10350 -0.550000 15.99940
10351 OM 10351 OM OM1 10351 -0.550000 15.99940
10352 OM 10352 OM OM1 10352 -0.550000 15.99940
10353 OM 10353 OM OM1 10353 -0.550000 15.99940
10354 OM 10354 OM OM1 10354 -0.550000 15.99940
10355 OM 10355 OM OM1 10355 -0.550000 15.99940
10356 OM 10356 OM OM1 10356 -0.550000 15.99940
10357 OM 10357 OM OM1 10357 -0.550000 15.99940
10358 OM 10358 OM OM1 10358 -0.550000 15.99940
10359 OM 10359 OM OM1 10359 -0.550000 15.99940
10360 OM 10360 OM OM1 10360 -0.550000 15.99940
10361 OM 10361 OM OM1 10361 -0.550000 15.99940
10362 OM 10362 OM OM1 10362 -0.550000 15.99940
10363 OM 10363 OM OM1 10363 -0.550000 15.99940
10364 OM 10364 OM OM1 10364 -0.550000 15.99940
10365 OM 10365 OM OM1 10365 -0.550000 15.99940
10366 OM 10366 OM OM1 10366 -0.550000 15.99940
10367 OM 10367 OM OM1 10367 -0.550000 15.99940
10368 OM 10368 OM OM1 10368 -0.550000 15.99940
10369 OM 10369 OM OM1 10369 -0.550000 15.99940
10370 OM 10370 OM OM1 10370 -0.550000 15.99940
10371 OM 10371 OM OM1 10371 -0.550000 15.99940
10372 OM 10372 OM OM1 10372 -0.550000 15.99940
10373 OM 10373 OM OM1 10373 -0.550000 15.99940
10374 OM 10374 OM OM1 10374 -0.550000 15.99940
10375 OM 10375 OM OM1 10375 -0.550000 15.99940
10376 OM 10376 OM OM1 10376 -0.550000 15.99940
10377 OM 10377 OM OM1 10377 -0.550000 15.99940
10378 OM 10378 OM OM1 10378 -0.550000 15.99940
10379 OM 10379 OM OM1 10379 -0.550000 15.99940
10380 OM 10380 OM OM1 10380 -0.550000 15.99940
10381 OM 10381 OM OM1 10381 -0.550000 15.99940
10382 OM 10382 OM OM1 10382 -0.550000 15.99940
10383 OM 10383 OM OM1 10383 -0.550000 15.99940
10384 OM 10384 OM OM1 10384 -0.550000 15.99940
10385 OM 10385 OM OM1 10385 -0.550000 15.99940
10386 OM 10386 OM OM1 10386 -0.550000 15.99940
10387 OM 10387 OM OM1 10387 -0.550000 15.99940
10388 OM 10388 OM OM1 10388 -0.550000 15.99940
10389 OM 10389 OM OM1 10389 -0.550000 15.99940
10390 OM 10390 OM OM1 10390 -0.550000 15.99940
10391 OM 10391 OM OM1 10391 -0.550000 15.99940
10392 OM 10392 OM OM1 10392 -0.550000 15.99940
10393 OM 10393 OM OM1 10393 -0.550000 15.99940
10394 OM 10394 OM OM1 10394 -0.550000 15.99940
10395 OM 10395 OM OM1 10395 -0.550000 15.99940
10396 OM 10396 OM OM1 10396 -0.550000 15.99940
10397 OM 10397 OM OM1 10397 -0.550000 15.99940
10398 OM 10398 OM OM1 10398 -0.550000 15.99940
10399 OM 10399 OM OM1 10399 -0.550000 15.99940
10400 OM 10400 OM OM1 10400 -0.550000 15.99940
10401 OM 10401 OM OM1 10401 -0.550000 15.99940
10402 OM 10402 OM OM1 10402 -0.550000 15.99940
10403 OM 10403 OM OM1 10403 -0.550000 15.99940
10404 OM 10404 OM OM1 10404 -0.550000 15.99940
10405 OM 10405 OM OM1 10405 -0.550000 15.99940
10406 OM 10406 OM OM1 10406 -0.550000 15.99940
10407 OM 10407 OM OM1 10407 -0.550000 15.99940
10408 OM 10408 OM OM1 10408 -0.550000 15.99940
10409 OM 10409 OM OM1 10409 -0.550000 15.99940
10410 OM 10410 OM OM1 10410 -0.550000 15.99940
10411 OM 10411 OM OM1 10411 -0.550000 15.99940
10412 OM 10412 OM OM1 10412 -0.550000 15.99940
10413 OM 10413 OM OM1 10413 -0.550000 15.99940
10414 OM 10414 OM OM1 10414 -0.550000 15.99940
10415 OM 10415 OM OM1 10415 -0.550000 15.99940
10416 OM 10416 OM OM1 10416 -0.550000 15.99940
10417 OM 10417 OM OM1 10417 -0.550000 15.99940
10418 OM 10418 OM OM1 10418 -0.550000 15.99940
10419 OM 10419 OM OM1 10419 -0.550000 15.99940
10420 OM 10420 OM OM1 10420 -0.550000 15.99940
10421 OM 10421 OM OM1 10421 -0.550000 15.99940
10422 OM 10422 OM OM1 10422 -0.550000 15.99940
10423 OM 10423 OM OM1 10423 -0.550000 15.99940
10424 OM 10424 OM OM1 10424 -0.550000 15.99940
10425 OM 10425 OM OM1 10425 -0.550000 15.99940
10426 OM 10426 OM OM1 10426 -0.550000 15.99940
10427 OM 10427 OM OM1 10427 -0.550000 15.99940
10428 OM 10428 OM OM1 10428 -0.550000 15.99940
10429 OM 10429 OM OM1 10429 -0.550000 15.99940
10430 OM 10430 OM OM1 10430 -0.550000 15.99940
10431 OM 10431 OM OM1 10431 -0.550000 15.99940
10432 OM 10432 OM OM1 10432 -0.550000 15.99940
10433 OM 10433 OM OM1 10433 -0.550000 15.99940
10434 OM 10434 OM OM1 10434 -0.550000 15.99940
10435 OM 10435 OM OM1 10435 -0.550000 15.99940
10436 OM 10436 OM OM1 10436 -0.550000 15.99940
10437 OM 10437 OM OM1 10437 -0.550000 15.99940
10438 OM 10438 OM OM1 10438 -0.550000 15.99940
10439 OM 10439 OM OM1 10439 -0.550000 15.99940
10440 OM 10440 OM OM1 10440 -0.550000 15.99940
10441 OM 10441 OM OM1 10441 -0.550000 15.99940
10442 OM 10442 OM OM1 10442 -0.550000 15.99940
10443 OM 10443 OM OM1 10443 -0.550000 15.99940
10444 OM 10444 OM OM1 10444 -0.550000 15.99940
10445 OM 10445 OM OM1 10445 -0.550000 15.99940
10446 OM 10446 OM OM1 10446 -0.550000 15.99940
10447 OM 10447 OM OM1 10447 -0.550000 15.99940
10448 OM 10448 OM OM1 10448 -0.550000 15.99940
10449 OM 10449 OM OM1 10449 -0.550000 15.99940
10450 OM 10450 OM OM1 10450 -0.550000 15.99940
10451 OM 10451 OM OM1 10451 -0.550000 15.99940
10452 OM 10452 OM OM1 10452 -0.550000 15.99940
10453 OM 10453 OM OM1 10453 -0.550000 15.99940
10454 OM 10454 OM OM1 10454 -0.550000 15.99940
10455 OM 10455 OM OM1 10455 -0.550000 15.99940
10456 OM 10456 OM OM1 10456 -0.550000 15.99940
10457 OM 10457 OM OM1 10457 -0.550000 15.99940
10458 OM 10458 OM OM1 10458 -0.550000 15.99940
10459 OM 10459 OM OM1 10459 -0.550000 15.99940
10460 OM 10460 OM OM1 10460 -0.550000 15.99940
10461 OM 10461 OM OM1 10461 -0.550000 15.99940
10462 OM 10462 OM OM1 10462 -0.550000 15.99940
10463 OM 10463 OM OM1 10463 -0.550000 15.99940
10464 OM 10464 OM OM1 10464 -0.550000 15.99940
10465 OM 10465 OM OM1 10465 -0.550000 15.99940
10466 OM 10466 OM OM1 10466 -0.550000 15.99940
10467 OM 10467 OM OM1 10467 -0.550000 15.99940
10468 OM 10468 OM OM1 10468 -0.550000 15.99940
10469 OM 10469 OM OM1 10469 -0.550000 15.99940
10470 OM 10470 OM OM1 10470 -0.550000 15.99940
10471 OM 10471 OM OM1 10471 -0.550000 15.99940
10472 OM 10472 OM OM1 10472 -0.550000 15.99940
10473 OM 10473 OM OM1 10473 -0.550000 15.99940
10474 OM 10474 OM OM1 10474 -0.550000 15.99940
10475 OM 10475 OM OM1 10475 -0.550000 15.99940
10476 OM 10476 OM OM1 10476 -0.550000 15.99940
10477 OM 10477 OM OM1 10477 -0.550000 15.99940
10478 OM 10478 OM OM1 10478 -0.550000 15.99940
10479 OM 10479 OM OM1 10479 -0.550000 15.99940
10480 OM 10480 OM OM1 10480 -0.550000 15.99940
10481 OM 10481 OM OM1 10481 -0.550000 15.99940
10482 OM 10482 OM OM1 10482 -0.550000 15.99940
10483 OM 10483 OM OM1 10483 -0.550000 15.99940
10484 OM 10484 OM OM1 10484 -0.550000 15.99940
10485 OM 10485 OM OM1 10485 -0.550000 15.99940
10486 OM 10486 OM OM1 10486 -0.550000 15.99940
10487 OM 10487 OM OM1 10487 -0.550000 15.99940
10488 OM 10488 OM OM1 10488 -0.550000 15.99940
10489 OM 10489 OM OM1 10489 -0.550000 15.99940
10490 OM 10490 OM OM1 10490 -0.550000 15.99940
10491 OM 10491 OM OM1 10491 -0.550000 15.99940
10492 OM 10492 OM OM1 10492 -0.550000 15.99940
10493 OM 10493 OM OM1 10493 -0.550000 15.99940
10494 OM 10494 OM OM1 10494 -0.550000 15.99940
10495 OM 10495 OM OM1 10495 -0.550000 15.99940
10496 OM 10496 OM OM1 10496 -0.550000 15.99940
10497 OM 10497 OM OM1 10497 -0.550000 15.99940
10498 OM 10498 OM OM1 10498 -0.550000 15.99940
10499 OM 10499 OM OM1 10499 -0.550000 15.99940
10500 OM 10500 OM OM1 10500 -0.550000 15.99940
10501 OM 10501 OM OM1 10501 -0.550000 15.99940
10502 OM 10502 OM OM1 10502 -0.550000 15.99940
10503 OM 10503 OM OM1 10503 -0.550000 15.99940
10504 OM 10504 OM OM1 10504 -0.550000 15.99940
10505 OM 10505 OM OM1 10505 -0.550000 15.99940
10506 OM 10506 OM OM1 10506 -0.550000 15.99940
10507 OM 10507 OM OM1 10507 -0.550000 15.99940
10508 OM 10508 OM OM1 10508 -0.550000 15.99940
10509 OM 10509 OM OM1 10509 -0.550000 15.99940
10510 OM 10510 OM OM1 10510 -0.550000 15.99940
10511 OM 10511 OM OM1 10511 -0.550000 15.99940
10512 OM 10512 OM OM1 10512 -0.550000 15.99940
10513 OM 10513 OM OM1 10513 -0.550000 15.99940
10514 OM 10514 OM OM1 10514 -0.550000 15.99940
10515 OM 10515 OM OM1 10515 -0.550000 15.99940
10516 OM 10516 OM OM1 10516 -0.550000 15.99940
10517 OM 10517 OM OM1 10517 -0.550000 15.99940
10518 OM 10518 OM OM1 10518 -0.550000 15.99940
10519 OM 10519 OM OM1 10519 -0.550000 15.99940
10520 OM 10520 OM OM1 10520 -0.550000 15.99940
10521 OM 10521 OM OM1 10521 -0.550000 15.99940
10522 OM 10522 OM OM1 10522 -0.550000 15.99940
10523 OM 10523 OM OM1 10523 -0.550000 15.99940
10524 OM 10524 OM OM1 10524 -0.550000 15.99940
10525 OM 10525 OM OM1 10525 -0.550000 15.99940
10526 OM 10526 OM OM1 10526 -0.550000 15.99940
10527 OM 10527 OM OM1 10527 -0.550000 15.99940
10528 OM 10528 OM OM1 10528 -0.550000 15.99940
10529 OM 10529 OM OM1 10529 -0.550000 15.99940
10530 OM 10530 OM OM1 10530 -0.550000 15.99940
10531 OM 10531 OM OM1 10531 -0.550000 15.99940
10532 OM 10532 OM OM1 10532 -0.550000 15.99940
10533 OM 10533 OM OM1 10533 -0.550000 15.99940
10534 OM 10534 OM OM1 10534 -0.550000 15.99940
10535 OM 10535 OM OM1 10535 -0.550000 15.99940
10536 OM 10536 OM OM1 10536 -0.550000 15.99940
10537 OM 10537 OM OM1 10537 -0.550000 15.99940
10538 OM 10538 OM OM1 10538 -0.550000 15.99940
10539 OM 10539 OM OM1 10539 -0.550000 15.99940
10540 OM 10540 OM OM1 10540 -0.550000 15.99940
10541 OM 10541 OM OM1 10541 -0.550000 15.99940
10542 OM 10542 OM OM1 10542 -0.550000 15.99940
10543 OM 10543 OM OM1 10543 -0.550000 15.99940
10544 OM 10544 OM OM1 10544 -0.550000 15.99940
10545 OM 10545 OM OM1 10545 -0.550000 15.99940
10546 OM 10546 OM OM1 10546 -0.550000 15.99940
10547 OM 10547 OM OM1 10547 -0.550000 15.99940
10548 OM 10548 OM OM1 10548 -0.550000 15.99940
10549 OM 10549 OM OM1 10549 -0.550000 15.99940
10550 OM 10550 OM OM1 10550 -0.550000 15.99940
10551 OM 10551 OM OM1 10551 -0.550000 15.99940
10552 OM 10552 OM OM1 10552 -0.550000 15.99940
10553 OM 10553 OM OM1 10553 -0.550000 15.99940
10554 OM 10554 OM OM1 10554 -0.550000 15.99940
10555 OM 10555 OM OM1 10555 -0.550000 15.99940
10556 OM 10556 OM OM1 10556 -0.550000 15.99940
10557 OM 10557 OM OM1 10557 -0.550000 15.99940
10558 OM 10558 OM OM1 10558 -0.550000 15.99940
10559 OM 10559 OM OM1 10559 -0.550000 15.99940
10560 OM 10560 OM OM1 10560 -0.550000 15.99940
10561 OM 10561 OM OM1 10561 -0.550000 15.99940
10562 OM 10562 OM OM1 10562 -0.550000 15.99940
10563 OM 10563 OM OM1 10563 -0.550000 15.99940
10564 OM 10564 OM OM1 10564 -0.550000 15.99940
10565 OM 10565 OM OM1 10565 -0.550000 15.99940
10566 OM 10566 OM OM1 10566 -0.550000 15.99940
10567 OM 10567 OM OM1 10567 -0.550000 15.99940
10568 OM 10568 OM OM1 10568 -0.550000 15.99940
10569 OM 10569 OM OM1 10569 -0.550000 15.99940
10570 OM 10570 OM OM1 10570 -0.550000 15.99940
10571 OM 10571 OM OM1 10571 -0.550000 15.99940
10572 OM 10572 OM OM1 10572 -0.550000 15.99940
10573 OM 10573 OM OM1 10573 -0.550000 15.99940
10574 OM 10574 OM OM1 10574 -0.550000 15.99940
10575 OM 10575 OM OM1 10575 -0.550000 15.99940
10576 OM 10576 OM OM1 10576 -0.550000 15.99940
10577 OM 10577 OM OM1 10577 -0.550000 15.99940
10578 OM 10578 OM OM1 10578 -0.550000 15.99940
10579 OM 10579 OM OM1 10579 -0.550000 15.99940
10580 OM 10580 OM OM1 10580 -0.550000 15.99940
10581 OM 10581 OM OM1 10581 -0.550000 15.99940
10582 OM 10582 OM OM1 10582 -0.550000 15.99940
10583 OM 10583 OM OM1 10583 -0.550000 15.99940
10584 OM 10584 OM OM1 10584 -0.550000 15.99940
10585 OM 10585 OM OM1 10585 -0.550000 15.99940
10586 OM 10586 OM OM1 10586 -0.550000 15.99940
10587 OM 10587 OM OM1 10587 -0.550000 15.99940
10588 OM 10588 OM OM1 10588 -0.550000 15.99940
10589 OM 10589 OM OM1 10589 -0.550000 15.99940
10590 OM 10590 OM OM1 10590 -0.550000 15.99940
10591 OM 10591 OM OM1 10591 -0.550000 15.99940
10592 OM 10592 OM OM1 10592 -0.550000 15.99940
10593 OM 10593 OM OM1 10593 -0.550000 15.99940
10594 OM 10594 OM OM1 10594 -0.550000 15.99940
10595 OM 10595 OM OM1 10595 -0.550000 15.99940
10596 OM 10596 OM OM1 10596 -0.550000 15.99940
10597 OM 10597 OM OM1 10597 -0.550000 15.99940
10598 OM 10598 OM OM1 10598 -0.550000 15.99940
10599 OM 10599 OM OM1 10599 -0.550000 15.99940
10600 OM 10600 OM OM1 10600 -0.550000 15.99940
10601 OM 10601 OM OM1 10601 -0.550000 15.99940
10602 OM 10602 OM OM1 10602 -0.550000 15.99940
10603 OM 10603 OM OM1 10603 -0.550000 15.99940
10604 OM 10604 OM OM1 10604 -0.550000 15.99940
10605 OM 10605 OM OM1 10605 -0.550000 15.99940
10606 OM 10606 OM OM1 10606 -0.550000 15.99940
10607 OM 10607 OM OM1 10607 -0.550000 15.99940
10608 OM 10608 OM OM1 10608 -0.550000 15.99940
10609 OM 10609 OM OM1 10609 -0.550000 15.99940
10610 OM 10610 OM OM1 10610 -0.550000 15.99940
10611 OM 10611 OM OM1 10611 -0.550000 15.99940
10612 OM 10612 OM OM1 10612 -0.550000 15.99940
10613 OM 10613 OM OM1 10613 -0.550000 15.99940
10614 OM 10614 OM OM1 10614 -0.550000 15.99940
10615 OM 10615 OM OM1 10615 -0.550000 15.99940
10616 OM 10616 OM OM1 10616 -0.550000 15.99940
10617 OM 10617 OM OM1 10617 -0.550000 15.99940
10618 OM 10618 OM OM1 10618 -0.550000 15.99940
10619 OM 10619 OM OM1 10619 -0.550000 15.99940
10620 OM 10620 OM OM1 10620 -0.550000 15.99940
10621 OM 10621 OM OM1 10621 -0.550000 15.99940
10622 OM 10622 OM OM1 10622 -0.550000 15.99940
10623 OM 10623 OM OM1 10623 -0.550000 15.99940
10624 OM 10624 OM OM1 10624 -0.550000 15.99940
10625 OM 10625 OM OM1 10625 -0.550000 15.99940
10626 OM 10626 OM OM1 10626 -0.550000 15.99940
10627 OM 10627 OM OM1 10627 -0.550000 15.99940
10628 OM 10628 OM OM1 10628 -0.550000 15.99940
10629 OM 10629 OM OM1 10629 -0.550000 15.99940
10630 OM 10630 OM OM1 10630 -0.550000 15.99940
10631 OM 10631 OM OM1 10631 -0.550000 15.99940
10632 OM 10632 OM OM1 10632 -0.550000 15.99940
10633 OM 10633 OM OM1 10633 -0.550000 15.99940
10634 OM 10634 OM OM1 10634 -0.550000 15.99940
10635 OM 10635 OM OM1 10635 -0.550000 15.99940
10636 OM 10636 OM OM1 10636 -0.550000 15.99940
10637 OM 10637 OM OM1 10637 -0.550000 15.99940
10638 OM 10638 OM OM1 10638 -0.550000 15.99940
10639 OM 10639 OM OM1 10639 -0.550000 15.99940
10640 OM 10640 OM OM1 10640 -0.550000 15.99940
10641 OM 10641 OM OM1 10641 -0.550000 15.99940
10642 OM 10642 OM OM1 10642 -0.550000 15.99940
10643 OM 10643 OM OM1 10643 -0.550000 15.99940
10644 OM 10644 OM OM1 10644 -0.550000 15.99940
10645 OM 10645 OM OM1 10645 -0.550000 15.99940
10646 OM 10646 OM OM1 10646 -0.550000 15.99940
10647 OM 10647 OM OM1 10647 -0.550000 15.99940
10648 OM 10648 OM OM1 10648 -0.550000 15.99940
10649 OM 10649 OM OM1 10649 -0.550000 15.99940
10650 OM 10650 OM OM1 10650 -0.550000 15.99940
10651 OM 10651 OM OM1 10651 -0.550000 15.99940
10652 OM 10652 OM OM1 10652 -0.550000 15.99940
10653 OM 10653 OM OM1 10653 -0.550000 15.99940
10654 OM 10654 OM OM1 10654 -0.550000 15.99940
10655 OM 10655 OM OM1 10655 -0.550000 15.99940
10656 OM 10656 OM OM1 10656 -0.550000 15.99940
10657 OM 10657 OM OM1 10657 -0.550000 15.99940
10658 OM 10658 OM OM1 10658 -0.550000 15.99940
10659 OM 10659 OM OM1 10659 -0.550000 15.99940
10660 OM 10660 OM OM1 10660 -0.550000 15.99940
10661 OM 10661 OM OM1 10661 -0.550000 15.99940
10662 OM 10662 OM OM1 10662 -0.550000 15.99940
10663 OM 10663 OM OM1 10663 -0.550000 15.99940
10664 OM 10664 OM OM1 10664 -0.550000 15.99940
10665 OM 10665 OM OM1 10665 -0.550000 15.99940
10666 OM 10666 OM OM1 10666 -0.550000 15.99940
10667 OM 10667 OM OM1 10667 -0.550000 15.99940
10668 OM 10668 OM OM1 10668 -0.550000 15.99940
10669 OM 10669 OM OM1 10669 -0.550000 15.99940
10670 OM 10670 OM OM1 10670 -0.550000 15.99940
10671 OM 10671 OM OM1 10671 -0.550000 15.99940
10672 OM 10672 OM OM1 10672 -0.550000 15.99940
10673 OM 10673 OM OM1 10673 -0.550000 15.99940
10674 OM 10674 OM OM1 10674 -0.550000 15.99940
10675 OM 10675 OM OM1 10675 -0.550000 15.99940
10676 OM 10676 OM OM1 10676 -0.550000 15.99940
10677 OM 10677 OM OM1 10677 -0.550000 15.99940
10678 OM 10678 OM OM1 10678 -0.550000 15.99940
10679 OM 10679 OM OM1 10679 -0.550000 15.99940
10680 OM 10680 OM OM1 10680 -0.550000 15.99940
10681 OM 10681 OM OM1 10681 -0.550000 15.99940
10682 OM 10682 OM OM1 10682 -0.550000 15.99940
10683 OM 10683 OM OM1 10683 -0.550000 15.99940
10684 OM 10684 OM OM1 10684 -0.550000 15.99940
10685 OM 10685 OM OM1 10685 -0.550000 15.99940
10686 OM 10686 OM OM1 10686 -0.550000 15.99940
10687 OM 10687 OM OM1 10687 -0.550000 15.99940
10688 OM 10688 OM OM1 10688 -0.550000 15.99940
10689 OM 10689 OM OM1 10689 -0.550000 15.99940
10690 OM 10690 OM OM1 10690 -0.550000 15.99940
10691 OM 10691 OM OM1 10691 -0.550000 15.99940
10692 OM 10692 OM OM1 10692 -0.550000 15.99940
10693 OM 10693 OM OM1 10693 -0.550000 15.99940
10694 OM 10694 OM OM1 10694 -0.550000 15.99940
10695 OM 10695 OM OM1 10695 -0.550000 15.99940
10696 OM 10696 OM OM1 10696 -0.550000 15.99940
10697 OM 10697 OM OM1 10697 -0.550000 15.99940
10698 OM 10698 OM OM1 10698 -0.550000 15.99940
10699 OM 10699 OM OM1 10699 -0.550000 15.99940
10700 OM 10700 OM OM1 10700 -0.550000 15.99940
10701 OM 10701 OM OM1 10701 -0.550000 15.99940
10702 OM 10702 OM OM1 10702 -0.550000 15.99940
10703 OM 10703 OM OM1 10703 -0.550000 15.99940
10704 OM 10704 OM OM1 10704 -0.550000 15.99940
10705 OM 10705 OM OM1 10705 -0.550000 15.99940
10706 OM 10706 OM OM1 10706 -0.550000 15.99940
10707 OM 10707 OM OM1 10707 -0.550000 15.99940
10708 OM 10708 OM OM1 10708 -0.550000 15.99940
10709 OM 10709 OM OM1 10709 -0.550000 15.99940
10710 OM 10710 OM OM1 10710 -0.550000 15.99940
10711 OM 10711 OM OM1 10711 -0.550000 15.99940
10712 OM 10712 OM OM1 10712 -0.550000 15.99940
10713 OM 10713 OM OM1 10713 -0.550000 15.99940
10714 OM 10714 OM OM1 10714 -0.550000 15.99940
10715 OM 10715 OM OM1 10715 -0.550000 15.99940
10716 OM 10716 OM OM1 10716 -0.550000 15.99940
10717 OM 10717 OM OM1 10717 -0.550000 15.99940
10718 OM 10718 OM OM1 10718 -0.550000 15.99940
10719 OM 10719 OM OM1 10719 -0.550000 15.99940
10720 OM 10720 OM OM1 10720 -0.550000 15.99940
10721 OM 10721 OM OM1 10721 -0.550000 15.99940
10722 OM 10722 OM OM1 10722 -0.550000 15.99940
10723 OM 10723 OM OM1 10723 -0.550000 15.99940
10724 OM 10724 OM OM1 10724 -0.550000 15.99940
10725 OM 10725 OM OM1 10725 -0.550000 15.99940
10726 OM 10726 OM OM1 10726 -0.550000 15.99940
10727 OM 10727 OM OM1 10727 -0.550000 15.99940
10728 OM 10728 OM OM1 10728 -0.550000 15.99940
10729 OM 10729 OM OM1 10729 -0.550000 15.99940
10730 OM 10730 OM OM1 10730 -0.550000 15.99940
10731 OM 10731 OM OM1 10731 -0.550000 15.99940
10732 OM 10732 OM OM1 10732 -0.550000 15.99940
10733 OM 10733 OM OM1 10733 -0.550000 15.99940
10734 OM 10734 OM OM1 10734 -0.550000 15.99940
10735 OM 10735 OM OM1 10735 -0.550000 15.99940
10736 OM 10736 OM OM1 10736 -0.550000 15.99940
10737 OM 10737 OM OM1 10737 -0.550000 15.99940
10738 OM 10738 OM OM1 10738 -0.550000 15.99940
10739 OM 10739 OM OM1 10739 -0.550000 15.99940
10740 OM 10740 OM OM1 10740 -0.550000 15.99940
10741 OM 10741 OM OM1 10741 -0.550000 15.99940
10742 OM 10742 OM OM1 10742 -0.550000 15.99940
10743 OM 10743 OM OM1 10743 -0.550000 15.99940
10744 OM 10744 OM OM1 10744 -0.550000 15.99940
10745 OM 10745 OM OM1 10745 -0.550000 15.99940
10746 OM 10746 OM OM1 10746 -0.550000 15.99940
10747 OM 10747 OM OM1 10747 -0.550000 15.99940
10748 OM 10748 OM OM1 10748 -0.550000 15.99940
10749 OM 10749 OM OM1 10749 -0.550000 15.99940
10750 OM 10750 OM OM1 10750 -0.550000 15.99940
10751 OM 10751 OM OM1 10751 -0.550000 15.99940
10752 OM 10752 OM OM1 10752 -0.550000 15.99940
10753 OM 10753 OM OM1 10753 -0.550000 15.99940
10754 OM 10754 OM OM1 10754 -0.550000 15.99940
10755 OM 10755 OM OM1 10755 -0.550000 15.99940
10756 OM 10756 OM OM1 10756 -0.550000 15.99940
10757 OM 10757 OM OM1 10757 -0.550000 15.99940
10758 OM 10758 OM OM1 10758 -0.550000 15.99940
10759 OM 10759 OM OM1 10759 -0.550000 15.99940
10760 OM 10760 OM OM1 10760 -0.550000 15.99940
10761 OM 10761 OM OM1 10761 -0.550000 15.99940
10762 OM 10762 OM OM1 10762 -0.550000 15.99940
10763 OM 10763 OM OM1 10763 -0.550000 15.99940
10764 OM 10764 OM OM1 10764 -0.550000 15.99940
10765 OM 10765 OM OM1 10765 -0.550000 15.99940
10766 OM 10766 OM OM1 10766 -0.550000 15.99940
10767 OM 10767 OM OM1 10767 -0.550000 15.99940
10768 OM 10768 OM OM1 10768 -0.550000 15.99940
10769 OM 10769 OM OM1 10769 -0.550000 15.99940
10770 OM 10770 OM OM1 10770 -0.550000 15.99940
10771 OM 10771 OM OM1 10771 -0.550000 15.99940
10772 OM 10772 OM OM1 10772 -0.550000 15.99940
10773 OM 10773 OM OM1 10773 -0.550000 15.99940
10774 OM 10774 OM OM1 10774 -0.550000 15.99940
10775 OM 10775 OM OM1 10775 -0.550000 15.99940
10776 OM 10776 OM OM1 10776 -0.550000 15.99940
10777 OM 10777 OM OM1 10777 -0.550000 15.99940
10778 OM 10778 OM OM1 10778 -0.550000 15.99940
10779 OM 10779 OM OM1 10779 -0.550000 15.99940
10780 OM 10780 OM OM1 10780 -0.550000 15.99940
10781 OM 10781 OM OM1 10781 -0.550000 15.99940
10782 OM 10782 OM OM1 10782 -0.550000 15.99940
10783 OM 10783 OM OM1 10783 -0.550000 15.99940
10784 OM 10784 OM OM1 10784 -0.550000 15.99940
10785 OM 10785 OM OM1 10785 -0.550000 15.99940
10786 OM 10786 OM OM1 10786 -0.550000 15.99940
10787 OM 10787 OM OM1 10787 -0.550000 15.99940
10788 OM 10788 OM OM1 10788 -0.550000 15.99940
10789 OM 10789 OM OM1 10789 -0.550000 15.99940
10790 OM 10790 OM OM1 10790 -0.550000 15.99940
10791 OM 10791 OM OM1 10791 -0.550000 15.99940
10792 OM 10792 OM OM1 10792 -0.550000 15.99940
10793 OM 10793 OM OM1 10793 -0.550000 15.99940
10794 OM 10794 OM OM1 10794 -0.550000 15.99940
10795 OM 10795 OM OM1 10795 -0.550000 15.99940
10796 OM 10796 OM OM1 10796 -0.550000 15.99940
10797 OM 10797 OM OM1 10797 -0.550000 15.99940
10798 OM 10798 OM OM1 10798 -0.550000 15.99940
10799 OM 10799 OM OM1 10799 -0.550000 15.99940
10800 OM 10800 OM OM1 10800 -0.550000 15.99940
10801 OM 10801 OM OM1 10801 -0.550000 15.99940
10802 OM 10802 OM OM1 10802 -0.550000 15.99940
10803 OM 10803 OM OM1 10803 -0.550000 15.99940
10804 OM 10804 OM OM1 10804 -0.550000 15.99940
10805 OM 10805 OM OM1 10805 -0.550000 15.99940
10806 OM 10806 OM OM1 10806 -0.550000 15.99940
10807 OM 10807 OM OM1 10807 -0.550000 15.99940
10808 OM 10808 OM OM1 10808 -0.550000 15.99940
10809 OM 10809 OM OM1 10809 -0.550000 15.99940
10810 OM 10810 OM OM1 10810 -0.550000 15.99940
10811 OM 10811 OM OM1 10811 -0.550000 15.99940
10812 OM 10812 OM OM1 10812 -0.550000 15.99940
10813 OM 10813 OM OM1 10813 -0.550000 15.99940
10814 OM 10814 OM OM1 10814 -0.550000 15.99940
10815 OM 10815 OM OM1 10815 -0.550000 15.99940
10816 OM 10816 OM OM1 10816 -0.550000 15.99940
10817 OM 10817 OM OM1 10817 -0.550000 15.99940
10818 OM 10818 OM OM1 10818 -0.550000 15.99940
10819 OM 10819 OM OM1 10819 -0.550000 15.99940
10820 OM 10820 OM OM1 10820 -0.550000 15.99940
10821 OM 10821 OM OM1 10821 -0.550000 15.99940
10822 OM 10822 OM OM1 10822 -0.550000 15.99940
10823 OM 10823 OM OM1 10823 -0.550000 15.99940
10824 OM 10824 OM OM1 10824 -0.550000 15.99940
10825 OM 10825 OM OM1 10825 -0.550000 15.99940
10826 OM 10826 OM OM1 10826 -0.550000 15.99940
10827 OM 10827 OM OM1 10827 -0.550000 15.99940
10828 OM 10828 OM OM1 10828 -0.550000 15.99940
10829 OM 10829 OM OM1 10829 -0.550000 15.99940
10830 OM 10830 OM OM1 10830 -0.550000 15.99940
10831 OM 10831 OM OM1 10831 -0.550000 15.99940
10832 OM 10832 OM OM1 10832 -0.550000 15.99940
10833 OM 10833 OM OM1 10833 -0.550000 15.99940
10834 OM 10834 OM OM1 10834 -0.550000 15.99940
10835 OM 10835 OM OM1 10835 -0.550000 15.99940
10836 OM 10836 OM OM1 10836 -0.550000 15.99940
10837 OM 10837 OM OM1 10837 -0.550000 15.99940
10838 OM 10838 OM OM1 10838 -0.550000 15.99940
10839 OM 10839 OM OM1 10839 -0.550000 15.99940
10840 OM 10840 OM OM1 10840 -0.550000 15.99940
10841 OM 10841 OM OM1 10841 -0.550000 15.99940
10842 OM 10842 OM OM1 10842 -0.550000 15.99940
10843 OM 10843 OM OM1 10843 -0.550000 15.99940
10844 OM 10844 OM OM1 10844 -0.550000 15.99940
10845 OM 10845 OM OM1 10845 -0.550000 15.99940
10846 OM 10846 OM OM1 10846 -0.550000 15.99940
10847 OM 10847 OM OM1 10847 -0.550000 15.99940
10848 OM 10848 OM OM1 10848 -0.550000 15.99940
10849 OM 10849 OM OM1 10849 -0.550000 15.99940
10850 OM 10850 OM OM1 10850 -0.550000 15.99940
10851 OM 10851 OM OM1 10851 -0.550000 15.99940
10852 OM 10852 OM OM1 10852 -0.550000 15.99940
10853 OM 10853 OM OM1 10853 -0.550000 15.99940
10854 OM 10854 OM OM1 10854 -0.550000 15.99940
10855 OM 10855 OM OM1 10855 -0.550000 15.99940
10856 OM 10856 OM OM1 10856 -0.550000 15.99940
10857 OM 10857 OM OM1 10857 -0.550000 15.99940
10858 OM 10858 OM OM1 10858 -0.550000 15.99940
10859 OM 10859 OM OM1 10859 -0.550000 15.99940
10860 OM 10860 OM OM1 10860 -0.550000 15.99940
10861 OM 10861 OM OM1 10861 -0.550000 15.99940
10862 OM 10862 OM OM1 10862 -0.550000 15.99940
10863 OM 10863 OM OM1 10863 -0.550000 15.99940
10864 OM 10864 OM OM1 10864 -0.550000 15.99940
10865 OM 10865 OM OM1 10865 -0.550000 15.99940
10866 OM 10866 OM OM1 10866 -0.550000 15.99940
10867 OM 10867 OM OM1 10867 -0.550000 15.99940
10868 OM 10868 OM OM1 10868 -0.550000 15.99940
10869 OM 10869 OM OM1 10869 -0.550000 15.99940
10870 OM 10870 OM OM1 10870 -0.550000 15.99940
10871 OM 10871 OM OM1 10871 -0.550000 15.99940
10872 OM 10872 OM OM1 10872 -0.550000 15.99940
10873 OM 10873 OM OM1 10873 -0.550000 15.99940
10874 OM 10874 OM OM1 10874 -0.550000 15.99940
10875 OM 10875 OM OM1 10875 -0.550000 15.99940
10876 OM 10876 OM OM1 10876 -0.550000 15.99940
10877 OM 10877 OM OM1 10877 -0.550000 15.99940
10878 OM 10878 OM OM1 10878 -0.550000 15.99940
10879 OM 10879 OM OM1 10879 -0.550000 15.99940
10880 OM 10880 OM OM1 10880 -0.550000 15.99940
10881 OM 10881 OM OM1 10881 -0.550000 15.99940
10882 OM 10882 OM OM1 10882 -0.550000 15.99940
10883 OM 10883 OM OM1 10883 -0.550000 15.99940
10884 OM 10884 OM OM1 10884 -0.550000 15.99940
10885 OM 10885 OM OM1 10885 -0.550000 15.99940
10886 OM 10886 OM OM1 10886 -0.550000 15.99940
10887 OM 10887 OM OM1 10887 -0.550000 15.99940
10888 OM 10888 OM OM1 10888 -0.550000 15.99940
10889 OM 10889 OM OM1 10889 -0.550000 15.99940
10890 OM 10890 OM OM1 10890 -0.550000 15.99940
10891 OM 10891 OM OM1 10891 -0.550000 15.99940
10892 OM 10892 OM OM1 10892 -0.550000 15.99940
10893 OM 10893 OM OM1 10893 -0.550000 15.99940
10894 OM 10894 OM OM1 10894 -0.550000 15.99940
10895 OM 10895 OM OM1 10895 -0.550000 15.99940
10896 OM 10896 OM OM1 10896 -0.550000 15.99940
10897 OM 10897 OM OM1 10897 -0.550000 15.99940
10898 OM 10898 OM OM1 10898 -0.550000 15.99940
10899 OM 10899 OM OM1 10899 -0.550000 15.99940
10900 OM 10900 OM OM1 10900 -0.550000 15.99940
10901 OM 10901 OM OM1 10901 -0.550000 15.99940
10902 OM 10902 OM OM1 10902 -0.550000 15.99940
10903 OM 10903 OM OM1 10903 -0.550000 15.99940
10904 OM 10904 OM OM1 10904 -0.550000 15.99940
10905 OM 10905 OM OM1 10905 -0.550000 15.99940
10906 OM 10906 OM OM1 10906 -0.550000 15.99940
10907 OM 10907 OM OM1 10907 -0.550000 15.99940
10908 OM 10908 OM OM1 10908 -0.550000 15.99940
10909 OM 10909 OM OM1 10909 -0.550000 15.99940
10910 OM 10910 OM OM1 10910 -0.550000 15.99940
10911 OM 10911 OM OM1 10911 -0.550000 15.99940
10912 OM 10912 OM OM1 10912 -0.550000 15.99940
10913 OM 10913 OM OM1 10913 -0.550000 15.99940
10914 OM 10914 OM OM1 10914 -0.550000 15.99940
10915 OM 10915 OM OM1 10915 -0.550000 15.99940
10916 OM 10916 OM OM1 10916 -0.550000 15.99940
10917 OM 10917 OM OM1 10917 -0.550000 15.99940
10918 OM 10918 OM OM1 10918 -0.550000 15.99940
10919 OM 10919 OM OM1 10919 -0.550000 15.99940
10920 OM 10920 OM OM1 10920 -0.550000 15.99940
10921 OM 10921 OM OM1 10921 -0.550000 15.99940
10922 OM 10922 OM OM1 10922 -0.550000 15.99940
10923 OM 10923 OM OM1 10923 -0.550000 15.99940
10924 OM 10924 OM OM1 10924 -0.550000 15.99940
10925 OM 10925 OM OM1 10925 -0.550000 15.99940
10926 OM 10926 OM OM1 10926 -0.550000 15.99940
10927 OM 10927 OM OM1 10927 -0.550000 15.99940
10928 OM 10928 OM OM1 10928 -0.550000 15.99940
10929 OM 10929 OM OM1 10929 -0.550000 15.99940
10930 OM 10930 OM OM1 10930 -0.550000 15.99940
10931 OM 10931 OM OM1 10931 -0.550000 15.99940
10932 OM 10932 OM OM1 10932 -0.550000 15.99940
10933 OM 10933 OM OM1 10933 -0.550000 15.99940
10934 OM 10934 OM OM1 10934 -0.550000 15.99940
10935 OM 10935 OM OM1 10935 -0.550000 15.99940
10936 OM 10936 OM OM1 10936 -0.550000 15.99940
10937 OM 10937 OM OM1 10937 -0.550000 15.99940
10938 OM 10938 OM OM1 10938 -0.550000 15.99940
10939 OM 10939 OM OM1 10939 -0.550000 15.99940
10940 OM 10940 OM OM1 10940 -0.550000 15.99940
10941 OM 10941 OM OM1 10941 -0.550000 15.99940
10942 OM 10942 OM OM1 10942 -0.550000 15.99940
10943 OM 10943 OM OM1 10943 -0.550000 15.99940
10944 OM 10944 OM OM1 10944 -0.550000 15.99940
10945 OM 10945 OM OM1 10945 -0.550000 15.99940
10946 OM 10946 OM OM1 10946 -0.550000 15.99940
10947 OM 10947 OM OM1 10947 -0.550000 15.99940
10948 OM 10948 OM OM1 10948 -0.550000 15.99940
10949 OM 10949 OM OM1 10949 -0.550000 15.99940
10950 OM 10950 OM OM1 10950 -0.550000 15.99940
10951 OM 10951 OM OM1 10951 -0.550000 15.99940
10952 OM 10952 OM OM1 10952 -0.550000 15.99940
10953 OM 10953 OM OM1 10953 -0.550000 15.99940
10954 OM 10954 OM OM1 10954 -0.550000 15.99940
10955 OM 10955 OM OM1 10955 -0.550000 15.99940
10956 OM 10956 OM OM1 10956 -0.550000 15.99940
10957 OM 10957 OM OM1 10957 -0.550000 15.99940
10958 OM 10958 OM OM1 10958 -0.550000 15.99940
10959 OM 10959 OM OM1 10959 -0.550000 15.99940
10960 OM 10960 OM OM1 10960 -0.550000 15.99940
10961 OM 10961 OM OM1 10961 -0.550000 15.99940
10962 OM 10962 OM OM1 10962 -0.550000 15.99940
10963 OM 10963 OM OM1 10963 -0.550000 15.99940
10964 OM 10964 OM OM1 10964 -0.550000 15.99940
10965 OM 10965 OM OM1 10965 -0.550000 15.99940
10966 OM 10966 OM OM1 10966 -0.550000 15.99940
10967 OM 10967 OM OM1 10967 -0.550000 15.99940
10968 OM 10968 OM OM1 10968 -0.550000 15.99940
10969 OM 10969 OM OM1 10969 -0.550000 15.99940
10970 OM 10970 OM OM1 10970 -0.550000 15.99940
10971 OM 10971 OM OM1 10971 -0.550000 15.99940
10972 OM 10972 OM OM1 10972 -0.550000 15.99940
10973 OM 10973 OM OM1 10973 -0.550000 15.99940
10974 OM 10974 OM OM1 10974 -0.550000 15.99940
10975 OM 10975 OM OM1 10975 -0.550000 15.99940
10976 OM 10976 OM OM1 10976 -0.550000 15.99940
10977 OM 10977 OM OM1 10977 -0.550000 15.99940
10978 OM 10978 OM OM1 10978 -0.550000 15.99940
10979 OM 10979 OM OM1 10979 -0.550000 15.99940
10980 OM 10980 OM OM1 10980 -0.550000 15.99940
10981 OM 10981 OM OM1 10981 -0.550000 15.99940
10982 OM 10982 OM OM1 10982 -0.550000 15.99940
10983 OM 10983 OM OM1 10983 -0.550000 15.99940
10984 OM 10984 OM OM1 10984 -0.550000 15.99940
10985 OM 10985 OM OM1 10985 -0.550000 15.99940
10986 OM 10986 OM OM1 10986 -0.550000 15.99940
10987 OM 10987 OM OM1 10987 -0.550000 15.99940
10988 OM 10988 OM OM1 10988 -0.550000 15.99940
10989 OM 10989 OM OM1 10989 -0.550000 15.99940
10990 OM 10990 OM OM1 10990 -0.550000 15.99940
10991 OM 10991 OM OM1 10991 -0.550000 15.99940
10992 OM 10992 OM OM1 10992 -0.550000 15.99940
10993 OM 10993 OM OM1 10993 -0.550000 15.99940
10994 OM 10994 OM OM1 10994 -0.550000 15.99940
10995 OM 10995 OM OM1 10995 -0.550000 15.99940
10996 OM 10996 OM OM1 10996 -0.550000 15.99940
10997 OM 10997 OM OM1 10997 -0.550000 15.99940
10998 OM 10998 OM OM1 10998 -0.550000 15.99940
10999 OM 10999 OM OM1 10999 -0.550000 15.99940
11000 OM 11000 OM OM1 11000 -0.550000 15.99940
11001 OM 11001 OM OM1 11001 -0.550000 15.99940
11002 OM 11002 OM OM1 11002 -0.550000 15.99940
11003 OM 11003 OM OM1 11003 -0.550000 15.99940
11004 OM 11004 OM OM1 11004 -0.550000 15.99940
11005 OM 11005 OM OM1 11005 -0.550000 15.99940
11006 OM 11006 OM OM1 11006 -0.550000 15.99940
11007 OM 11007 OM OM1 11007 -0.550000 15.99940
11008 OM 11008 OM OM1 11008 -0.550000 15.99940
11009 OM 11009 OM OM1 11009 -0.550000 15.99940
11010 OM 11010 OM OM1 11010 -0.550000 15.99940
11011 OM 11011 OM OM1 11011 -0.550000 15.99940
11012 OM 11012 OM OM1 11012 -0.550000 15.99940
11013 OM 11013 OM OM1 11013 -0.550000 15.99940
11014 OM 11014 OM OM1 11014 -0.550000 15.99940
11015 OM 11015 OM OM1 11015 -0.550000 15.99940
11016 OM 11016 OM OM1 11016 -0.550000 15.99940
11017 OM 11017 OM OM1 11017 -0.550000 15.99940
11018 OM 11018 OM OM1 11018 -0.550000 15.99940
11019 OM 11019 OM OM1 11019 -0.550000 15.99940
11020 OM 11020 OM OM1 11020 -0.550000 15.99940
11021 OM 11021 OM OM1 11021 -0.550000 15.99940
11022 OM 11022 OM OM1 11022 -0.550000 15.99940
11023 OM 11023 OM OM1 11023 -0.550000 15.99940
11024 OM 11024 OM OM1 11024 -0.550000 15.99940
11025 OM 11025 OM OM1 11025 -0.550000 15.99940
11026 OM 11026 OM OM1 11026 -0.550000 15.99940
11027 OM 11027 OM OM1 11027 -0.550000 15.99940
11028 OM 11028 OM OM1 11028 -0.550000 15.99940
11029 OM 11029 OM OM1 11029 -0.550000 15.99940
11030 OM 11030 OM OM1 11030 -0.550000 15.99940
11031 OM 11031 OM OM1 11031 -0.550000 15.99940
11032 OM 11032 OM OM1 11032 -0.550000 15.99940
11033 OM 11033 OM OM1 11033 -0.550000 15.99940
11034 OM 11034 OM OM1 11034 -0.550000 15.99940
11035 OM 11035 OM OM1 11035 -0.550000 15.99940
11036 OM 11036 OM OM1 11036 -0.550000 15.99940
11037 OM 11037 OM OM1 11037 -0.550000 15.99940
11038 OM 11038 OM OM1 11038 -0.550000 15.99940
11039 OM 11039 OM OM1 11039 -0.550000 15.99940
11040 OM 11040 OM OM1 11040 -0.550000 15.99940
11041 OM 11041 OM OM1 11041 -0.550000 15.99940
11042 OM 11042 OM OM1 11042 -0.550000 15.99940
11043 OM 11043 OM OM1 11043 -0.550000 15.99940
11044 OM 11044 OM OM1 11044 -0.550000 15.99940
11045 OM 11045 OM OM1 11045 -0.550000 15.99940
11046 OM 11046 OM OM1 11046 -0.550000 15.99940
11047 OM 11047 OM OM1 11047 -0.550000 15.99940
11048 OM 11048 OM OM1 11048 -0.550000 15.99940
11049 OM 11049 OM OM1 11049 -0.550000 15.99940
11050 OM 11050 OM OM1 11050 -0.550000 15.99940
11051 OM 11051 OM OM1 11051 -0.550000 15.99940
11052 OM 11052 OM OM1 11052 -0.550000 15.99940
11053 OM 11053 OM OM1 11053 -0.550000 15.99940
11054 OM 11054 OM OM1 11054 -0.550000 15.99940
11055 OM 11055 OM OM1 11055 -0.550000 15.99940
11056 OM 11056 OM OM1 11056 -0.550000 15.99940
11057 OM 11057 OM OM1 11057 -0.550000 15.99940
11058 OM 11058 OM OM1 11058 -0.550000 15.99940
11059 OM 11059 OM OM1 11059 -0.550000 15.99940
11060 OM 11060 OM OM1 11060 -0.550000 15.99940
11061 OM 11061 OM OM1 11061 -0.550000 15.99940
11062 OM 11062 OM OM1 11062 -0.550000 15.99940
11063 OM 11063 OM OM1 11063 -0.550000 15.99940
11064 OM 11064 OM OM1 11064 -0.550000 15.99940
11065 OM 11065 OM OM1 11065 -0.550000 15.99940
11066 OM 11066 OM OM1 11066 -0.550000 15.99940
11067 OM 11067 OM OM1 11067 -0.550000 15.99940
11068 OM 11068 OM OM1 11068 -0.550000 15.99940
11069 OM 11069 OM OM1 11069 -0.550000 15.99940
11070 OM 11070 OM OM1 11070 -0.550000 15.99940
11071 OM 11071 OM OM1 11071 -0.550000 15.99940
11072 OM 11072 OM OM1 11072 -0.550000 15.99940
11073 OM 11073 OM OM1 11073 -0.550000 15.99940
11074 OM 11074 OM OM1 11074 -0.550000 15.99940
11075 OM 11075 OM OM1 11075 -0.550000 15.99940
11076 OM 11076 OM OM1 11076 -0.550000 15.99940
11077 OM 11077 OM OM1 11077 -0.550000 15.99940
11078 OM 11078 OM OM1 11078 -0.550000 15.99940
11079 OM 11079 OM OM1 11079 -0.550000 15.99940
11080 OM 11080 OM OM1 11080 -0.550000 15.99940
11081 OM 11081 OM OM1 11081 -0.550000 15.99940
11082 OM 11082 OM OM1 11082 -0.550000 15.99940
11083 OM 11083 OM OM1 11083 -0.550000 15.99940
11084 OM 11084 OM OM1 11084 -0.550000 15.99940
11085 OM 11085 OM OM1 11085 -0.550000 15.99940
11086 OM 11086 OM OM1 11086 -0.550000 15.99940
11087 OM 11087 OM OM1 11087 -0.550000 15.99940
11088 OM 11088 OM OM1 11088 -0.550000 15.99940
11089 OM 11089 OM OM1 11089 -0.550000 15.99940
11090 OM 11090 OM OM1 11090 -0.550000 15.99940
11091 OM 11091 OM OM1 11091 -0.550000 15.99940
11092 OM 11092 OM OM1 11092 -0.550000 15.99940
11093 OM 11093 OM OM1 11093 -0.550000 15.99940
11094 OM 11094 OM OM1 11094 -0.550000 15.99940
11095 OM 11095 OM OM1 11095 -0.550000 15.99940
11096 OM 11096 OM OM1 11096 -0.550000 15.99940
11097 OM 11097 OM OM1 11097 -0.550000 15.99940
11098 OM 11098 OM OM1 11098 -0.550000 15.99940
11099 OM 11099 OM OM1 11099 -0.550000 15.99940
11100 OM 11100 OM OM1 11100 -0.550000 15.99940
11101 OM 11101 OM OM1 11101 -0.550000 15.99940
11102 OM 11102 OM OM1 11102 -0.550000 15.99940
11103 OM 11103 OM OM1 11103 -0.550000 15.99940
11104 OM 11104 OM OM1 11104 -0.550000 15.99940
11105 OM 11105 OM OM1 11105 -0.550000 15.99940
11106 OM 11106 OM OM1 11106 -0.550000 15.99940
11107 OM 11107 OM OM1 11107 -0.550000 15.99940
11108 OM 11108 OM OM1 11108 -0.550000 15.99940
11109 OM 11109 OM OM1 11109 -0.550000 15.99940
11110 OM 11110 OM OM1 11110 -0.550000 15.99940
11111 OM 11111 OM OM1 11111 -0.550000 15.99940
11112 OM 11112 OM OM1 11112 -0.550000 15.99940
11113 OM 11113 OM OM1 11113 -0.550000 15.99940
11114 OM 11114 OM OM1 11114 -0.550000 15.99940
11115 OM 11115 OM OM1 11115 -0.550000 15.99940
11116 OM 11116 OM OM1 11116 -0.550000 15.99940
11117 OM 11117 OM OM1 11117 -0.550000 15.99940
11118 OM 11118 OM OM1 11118 -0.550000 15.99940
11119 OM 11119 OM OM1 11119 -0.550000 15.99940
11120 OM 11120 OM OM1 11120 -0.550000 15.99940
11121 OM 11121 OM OM1 11121 -0.550000 15.99940
11122 OM 11122 OM OM1 11122 -0.550000 15.99940
11123 OM 11123 OM OM1 11123 -0.550000 15.99940
11124 OM 11124 OM OM1 11124 -0.550000 15.99940
11125 OM 11125 OM OM1 11125 -0.550000 15.99940
11126 OM 11126 OM OM1 11126 -0.550000 15.99940
11127 OM 11127 OM OM1 11127 -0.550000 15.99940
11128 OM 11128 OM OM1 11128 -0.550000 15.99940
11129 OM 11129 OM OM1 11129 -0.550000 15.99940
11130 OM 11130 OM OM1 11130 -0.550000 15.99940
11131 OM 11131 OM OM1 11131 -0.550000 15.99940
11132 OM 11132 OM OM1 11132 -0.550000 15.99940
11133 OM 11133 OM OM1 11133 -0.550000 15.99940
11134 OM 11134 OM OM1 11134 -0.550000 15.99940
11135 OM 11135 OM OM1 11135 -0.550000 15.99940
11136 OM 11136 OM OM1 11136 -0.550000 15.99940
11137 OM 11137 OM OM1 11137 -0.550000 15.99940
11138 OM 11138 OM OM1 11138 -0.550000 15.99940
11139 OM 11139 OM OM1 11139 -0.550000 15.99940
11140 OM 11140 OM OM1 11140 -0.550000 15.99940
11141 OM 11141 OM OM1 11141 -0.550000 15.99940
11142 OM 11142 OM OM1 11142 -0.550000 15.99940
11143 OM 11143 OM OM1 11143 -0.550000 15.99940
11144 OM 11144 OM OM1 11144 -0.550000 15.99940
11145 OM 11145 OM OM1 11145 -0.550000 15.99940
11146 OM 11146 OM OM1 11146 -0.550000 15.99940
11147 OM 11147 OM OM1 11147 -0.550000 15.99940
11148 OM 11148 OM OM1 11148 -0.550000 15.99940
11149 OM 11149 OM OM1 11149 -0.550000 15.99940
11150 OM 11150 OM OM1 11150 -0.550000 15.99940
11151 OM 11151 OM OM1 11151 -0.550000 15.99940
11152 OM 11152 OM OM1 11152 -0.550000 15.99940
11153 OM 11153 OM OM1 11153 -0.550000 15.99940
11154 OM 11154 OM OM1 11154 -0.550000 15.99940
11155 OM 11155 OM OM1 11155 -0.550000 15.99940
11156 OM 11156 OM OM1 11156 -0.550000 15.99940
11157 OM 11157 OM OM1 11157 -0.550000 15.99940
11158 OM 11158 OM OM1 11158 -0.550000 15.99940
11159 OM 11159 OM OM1 11159 -0.550000 15.99940
11160 OM 11160 OM OM1 11160 -0.550000 15.99940
11161 OM 11161 OM OM1 11161 -0.550000 15.99940
11162 OM 11162 OM OM1 11162 -0.550000 15.99940
11163 OM 11163 OM OM1 11163 -0.550000 15.99940
11164 OM 11164 OM OM1 11164 -0.550000 15.99940
11165 OM 11165 OM OM1 11165 -0.550000 15.99940
11166 OM 11166 OM OM1 11166 -0.550000 15.99940
11167 OM 11167 OM OM1 11167 -0.550000 15.99940
11168 OM 11168 OM OM1 11168 -0.550000 15.99940
11169 OM 11169 OM OM1 11169 -0.550000 15.99940
11170 OM 11170 OM OM1 11170 -0.550000 15.99940
11171 OM 11171 OM OM1 11171 -0.550000 15.99940
11172 OM 11172 OM OM1 11172 -0.550000 15.99940
11173 OM 11173 OM OM1 11173 -0.550000 15.99940
11174 OM 11174 OM OM1 11174 -0.550000 15.99940
11175 OM 11175 OM OM1 11175 -0.550000 15.99940
11176 OM 11176 OM OM1 11176 -0.550000 15.99940
11177 OM 11177 OM OM1 11177 -0.550000 15.99940
11178 OM 11178 OM OM1 11178 -0.550000 15.99940
11179 OM 11179 OM OM1 11179 -0.550000 15.99940
11180 OM 11180 OM OM1 11180 -0.550000 15.99940
11181 OM 11181 OM OM1 11181 -0.550000 15.99940
11182 OM 11182 OM OM1 11182 -0.550000 15.99940
11183 OM 11183 OM OM1 11183 -0.550000 15.99940
11184 OM 11184 OM OM1 11184 -0.550000 15.99940
11185 OM 11185 OM OM1 11185 -0.550000 15.99940
11186 OM 11186 OM OM1 11186 -0.550000 15.99940
11187 OM 11187 OM OM1 11187 -0.550000 15.99940
11188 OM 11188 OM OM1 11188 -0.550000 15.99940
11189 OM 11189 OM OM1 11189 -0.550000 15.99940
11190 OM 11190 OM OM1 11190 -0.550000 15.99940
11191 OM 11191 OM OM1 11191 -0.550000 15.99940
11192 OM 11192 OM OM1 11192 -0.550000 15.99940
11193 OM 11193 OM OM1 11193 -0.550000 15.99940
11194 OM 11194 OM OM1 11194 -0.550000 15.99940
11195 OM 11195 OM OM1 11195 -0.550000 15.99940
11196 OM 11196 OM OM1 11196 -0.550000 15.99940
11197 OM 11197 OM OM1 11197 -0.550000 15.99940
11198 OM 11198 OM OM1 11198 -0.550000 15.99940
11199 OM 11199 OM OM1 11199 -0.550000 15.99940
11200 OM 11200 OM OM1 11200 -0.550000 15.99940
11201 OM 11201 OM OM1 11201 -0.550000 15.99940
11202 OM 11202 OM OM1 11202 -0.550000 15.99940
11203 OM 11203 OM OM1 11203 -0.550000 15.99940
11204 OM 11204 OM OM1 11204 -0.550000 15.99940
11205 OM 11205 OM OM1 11205 -0.550000 15.99940
11206 OM 11206 OM OM1 11206 -0.550000 15.99940
11207 OM 11207 OM OM1 11207 -0.550000 15.99940
11208 OM 11208 OM OM1 11208 -0.550000 15.99940
11209 OM 11209 OM OM1 11209 -0.550000 15.99940
11210 OM 11210 OM OM1 11210 -0.550000 15.99940
11211 OM 11211 OM OM1 11211 -0.550000 15.99940
11212 OM 11212 OM OM1 11212 -0.550000 15.99940
11213 OM 11213 OM OM1 11213 -0.550000 15.99940
11214 OM 11214 OM OM1 11214 -0.550000 15.99940
11215 OM 11215 OM OM1 11215 -0.550000 15.99940
11216 OM 11216 OM OM1 11216 -0.550000 15.99940
11217 OM 11217 OM OM1 11217 -0.550000 15.99940
11218 OM 11218 OM OM1 11218 -0.550000 15.99940
11219 OM 11219 OM OM1 11219 -0.550000 15.99940
11220 OM 11220 OM OM1 11220 -0.550000 15.99940
11221 OM 11221 OM OM1 11221 -0.550000 15.99940
11222 OM 11222 OM OM1 11222 -0.550000 15.99940
11223 OM 11223 OM OM1 11223 -0.550000 15.99940
11224 OM 11224 OM OM1 11224 -0.550000 15.99940
11225 OM 11225 OM OM1 11225 -0.550000 15.99940
11226 OM 11226 OM OM1 11226 -0.550000 15.99940
11227 OM 11227 OM OM1 11227 -0.550000 15.99940
11228 OM 11228 OM OM1 11228 -0.550000 15.99940
11229 OM 11229 OM OM1 11229 -0.550000 15.99940
11230 OM 11230 OM OM1 11230 -0.550000 15.99940
11231 OM 11231 OM OM1 11231 -0.550000 15.99940
11232 OM 11232 OM OM1 11232 -0.550000 15.99940
11233 OM 11233 OM OM1 11233 -0.550000 15.99940
11234 OM 11234 OM OM1 11234 -0.550000 15.99940
11235 OM 11235 OM OM1 11235 -0.550000 15.99940
11236 OM 11236 OM OM1 11236 -0.550000 15.99940
11237 OM 11237 OM OM1 11237 -0.550000 15.99940
11238 OM 11238 OM OM1 11238 -0.550000 15.99940
11239 OM 11239 OM OM1 11239 -0.550000 15.99940
11240 OM 11240 OM OM1 11240 -0.550000 15.99940
11241 OM 11241 OM OM1 11241 -0.550000 15.99940
11242 OM 11242 OM OM1 11242 -0.550000 15.99940
11243 OM 11243 OM OM1 11243 -0.550000 15.99940
11244 OM 11244 OM OM1 11244 -0.550000 15.99940
11245 OM 11245 OM OM1 11245 -0.550000 15.99940
11246 OM 11246 OM OM1 11246 -0.550000 15.99940
11247 OM 11247 OM OM1 11247 -0.550000 15.99940
11248 OM 11248 OM OM1 11248 -0.550000 15.99940
11249 OM 11249 OM OM1 11249 -0.550000 15.99940
11250 OM 11250 OM OM1 11250 -0.550000 15.99940
11251 OM 11251 OM OM1 11251 -0.550000 15.99940
11252 SI 11252 SI SI1 11252 1.100000 28.08600
11253 SI 11253 SI SI1 11253 1.100000 28.08600
11254 SI 11254 SI SI1 11254 1.100000 28.08600
11255 SI 11255 SI SI1 11255 1.100000 28.08600
11256 SI 11256 SI SI1 11256 1.100000 28.08600
11257 SI 11257 SI SI1 11257 1.100000 28.08600
11258 SI 11258 SI SI1 11258 1.100000 28.08600
11259 SI 11259 SI SI1 11259 1.100000 28.08600
11260 SI 11260 SI SI1 11260 1.100000 28.08600
11261 SI 11261 SI SI1 11261 1.100000 28.08600
11262 SI 11262 SI SI1 11262 1.100000 28.08600
11263 SI 11263 SI SI1 11263 1.100000 28.08600
11264 SI 11264 SI SI1 11264 1.100000 28.08600
11265 SI 11265 SI SI1 11265 1.100000 28.08600
11266 SI 11266 SI SI1 11266 1.100000 28.08600
11267 SI 11267 SI SI1 11267 1.100000 28.08600
11268 SI 11268 SI SI1 11268 1.100000 28.08600
11269 SI 11269 SI SI1 11269 1.100000 28.08600
11270 SI 11270 SI SI1 11270 1.100000 28.08600
11271 SI 11271 SI SI1 11271 1.100000 28.08600
11272 SI 11272 SI SI1 11272 1.100000 28.08600
11273 SI 11273 SI SI1 11273 1.100000 28.08600
11274 SI 11274 SI SI1 11274 1.100000 28.08600
11275 SI 11275 SI SI1 11275 1.100000 28.08600
11276 SI 11276 SI SI1 11276 1.100000 28.08600
11277 SI 11277 SI SI1 11277 1.100000 28.08600
11278 SI 11278 SI SI1 11278 1.100000 28.08600
11279 SI 11279 SI SI1 11279 1.100000 28.08600
11280 SI 11280 SI SI1 11280 1.100000 28.08600
11281 SI 11281 SI SI1 11281 1.100000 28.08600
11282 SI 11282 SI SI1 11282 1.100000 28.08600
11283 SI 11283 SI SI1 11283 1.100000 28.08600
11284 SI 11284 SI SI1 11284 1.100000 28.08600
11285 SI 11285 SI SI1 11285 1.100000 28.08600
11286 SI 11286 SI SI1 11286 1.100000 28.08600
11287 SI 11287 SI SI1 11287 1.100000 28.08600
11288 SI 11288 SI SI1 11288 1.100000 28.08600
11289 SI 11289 SI SI1 11289 1.100000 28.08600
11290 SI 11290 SI SI1 11290 1.100000 28.08600
11291 SI 11291 SI SI1 11291 1.100000 28.08600
11292 SI 11292 SI SI1 11292 1.100000 28.08600
11293 SI 11293 SI SI1 11293 1.100000 28.08600
11294 SI 11294 SI SI1 11294 1.100000 28.08600
11295 SI 11295 SI SI1 11295 1.100000 28.08600
11296 SI 11296 SI SI1 11296 1.100000 28.08600
11297 SI 11297 SI SI1 11297 1.100000 28.08600
11298 SI 11298 SI SI1 11298 1.100000 28.08600
11299 SI 11299 SI SI1 11299 1.100000 28.08600
11300 SI 11300 SI SI1 11300 1.100000 28.08600
11301 SI 11301 SI SI1 11301 1.100000 28.08600
11302 SI 11302 SI SI1 11302 1.100000 28.08600
11303 SI 11303 SI SI1 11303 1.100000 28.08600
11304 SI 11304 SI SI1 11304 1.100000 28.08600
11305 SI 11305 SI SI1 11305 1.100000 28.08600
11306 SI 11306 SI SI1 11306 1.100000 28.08600
11307 SI 11307 SI SI1 11307 1.100000 28.08600
11308 SI 11308 SI SI1 11308 1.100000 28.08600
11309 SI 11309 SI SI1 11309 1.100000 28.08600
11310 SI 11310 SI SI1 11310 1.100000 28.08600
11311 SI 11311 SI SI1 11311 1.100000 28.08600
11312 SI 11312 SI SI1 11312 1.100000 28.08600
11313 SI 11313 SI SI1 11313 1.100000 28.08600
11314 SI 11314 SI SI1 11314 1.100000 28.08600
11315 SI 11315 SI SI1 11315 1.100000 28.08600
11316 SI 11316 SI SI1 11316 1.100000 28.08600
11317 SI 11317 SI SI1 11317 1.100000 28.08600
11318 SI 11318 SI SI1 11318 1.100000 28.08600
11319 SI 11319 SI SI1 11319 1.100000 28.08600
11320 SI 11320 SI SI1 11320 1.100000 28.08600
11321 SI 11321 SI SI1 11321 1.100000 28.08600
11322 SI 11322 SI SI1 11322 1.100000 28.08600
11323 SI 11323 SI SI1 11323 1.100000 28.08600
11324 SI 11324 SI SI1 11324 1.100000 28.08600
11325 SI 11325 SI SI1 11325 1.100000 28.08600
11326 SI 11326 SI SI1 11326 1.100000 28.08600
11327 SI 11327 SI SI1 11327 1.100000 28.08600
11328 SI 11328 SI SI1 11328 1.100000 28.08600
11329 SI 11329 SI SI1 11329 1.100000 28.08600
11330 SI 11330 SI SI1 11330 1.100000 28.08600
11331 SI 11331 SI SI1 11331 1.100000 28.08600
11332 SI 11332 SI SI1 11332 1.100000 28.08600
11333 SI 11333 SI SI1 11333 1.100000 28.08600
11334 SI 11334 SI SI1 11334 1.100000 28.08600
11335 SI 11335 SI SI1 11335 1.100000 28.08600
11336 SI 11336 SI SI1 11336 1.100000 28.08600
11337 SI 11337 SI SI1 11337 1.100000 28.08600
11338 SI 11338 SI SI1 11338 1.100000 28.08600
11339 SI 11339 SI SI1 11339 1.100000 28.08600
11340 SI 11340 SI SI1 11340 1.100000 28.08600
11341 SI 11341 SI SI1 11341 1.100000 28.08600
11342 SI 11342 SI SI1 11342 1.100000 28.08600
11343 SI 11343 SI SI1 11343 1.100000 28.08600
11344 SI 11344 SI SI1 11344 1.100000 28.08600
11345 SI 11345 SI SI1 11345 1.100000 28.08600
11346 SI 11346 SI SI1 11346 1.100000 28.08600
11347 SI 11347 SI SI1 11347 1.100000 28.08600
11348 SI 11348 SI SI1 11348 1.100000 28.08600
11349 SI 11349 SI SI1 11349 1.100000 28.08600
11350 SI 11350 SI SI1 11350 1.100000 28.08600
11351 SI 11351 SI SI1 11351 1.100000 28.08600
11352 SI 11352 SI SI1 11352 1.100000 28.08600
11353 SI 11353 SI SI1 11353 1.100000 28.08600
11354 SI 11354 SI SI1 11354 1.100000 28.08600
11355 SI 11355 SI SI1 11355 1.100000 28.08600
11356 SI 11356 SI SI1 11356 1.100000 28.08600
11357 SI 11357 SI SI1 11357 1.100000 28.08600
11358 SI 11358 SI SI1 11358 1.100000 28.08600
11359 SI 11359 SI SI1 11359 1.100000 28.08600
11360 SI 11360 SI SI1 11360 1.100000 28.08600
11361 SI 11361 SI SI1 11361 1.100000 28.08600
11362 SI 11362 SI SI1 11362 1.100000 28.08600
11363 SI 11363 SI SI1 11363 1.100000 28.08600
11364 SI 11364 SI SI1 11364 1.100000 28.08600
11365 SI 11365 SI SI1 11365 1.100000 28.08600
11366 SI 11366 SI SI1 11366 1.100000 28.08600
11367 SI 11367 SI SI1 11367 1.100000 28.08600
11368 SI 11368 SI SI1 11368 1.100000 28.08600
11369 SI 11369 SI SI1 11369 1.100000 28.08600
11370 SI 11370 SI SI1 11370 1.100000 28.08600
11371 SI 11371 SI SI1 11371 1.100000 28.08600
11372 SI 11372 SI SI1 11372 1.100000 28.08600
11373 SI 11373 SI SI1 11373 1.100000 28.08600
11374 SI 11374 SI SI1 11374 1.100000 28.08600
11375 SI 11375 SI SI1 11375 1.100000 28.08600
11376 SI 11376 SI SI1 11376 1.100000 28.08600
11377 SI 11377 SI SI1 11377 1.100000 28.08600
11378 SI 11378 SI SI1 11378 1.100000 28.08600
11379 SI 11379 SI SI1 11379 1.100000 28.08600
11380 SI 11380 SI SI1 11380 1.100000 28.08600
11381 SI 11381 SI SI1 11381 1.100000 28.08600
11382 SI 11382 SI SI1 11382 1.100000 28.08600
11383 SI 11383 SI SI1 11383 1.100000 28.08600
11384 SI 11384 SI SI1 11384 1.100000 28.08600
11385 SI 11385 SI SI1 11385 1.100000 28.08600
11386 SI 11386 SI SI1 11386 1.100000 28.08600
11387 SI 11387 SI SI1 11387 1.100000 28.08600
11388 SI 11388 SI SI1 11388 1.100000 28.08600
11389 SI 11389 SI SI1 11389 1.100000 28.08600
11390 SI 11390 SI SI1 11390 1.100000 28.08600
11391 SI 11391 SI SI1 11391 1.100000 28.08600
11392 SI 11392 SI SI1 11392 1.100000 28.08600
11393 SI 11393 SI SI1 11393 1.100000 28.08600
11394 SI 11394 SI SI1 11394 1.100000 28.08600
11395 SI 11395 SI SI1 11395 1.100000 28.08600
11396 SI 11396 SI SI1 11396 1.100000 28.08600
11397 SI 11397 SI SI1 11397 1.100000 28.08600
11398 SI 11398 SI SI1 11398 1.100000 28.08600
11399 SI 11399 SI SI1 11399 1.100000 28.08600
11400 SI 11400 SI SI1 11400 1.100000 28.08600
11401 SI 11401 SI SI1 11401 1.100000 28.08600
11402 SI 11402 SI SI1 11402 1.100000 28.08600
11403 SI 11403 SI SI1 11403 1.100000 28.08600
11404 SI 11404 SI SI1 11404 1.100000 28.08600
11405 SI 11405 SI SI1 11405 1.100000 28.08600
11406 SI 11406 SI SI1 11406 1.100000 28.08600
11407 SI 11407 SI SI1 11407 1.100000 28.08600
11408 SI 11408 SI SI1 11408 1.100000 28.08600
11409 SI 11409 SI SI1 11409 1.100000 28.08600
11410 SI 11410 SI SI1 11410 1.100000 28.08600
11411 SI 11411 SI SI1 11411 1.100000 28.08600
11412 SI 11412 SI SI1 11412 1.100000 28.08600
11413 SI 11413 SI SI1 11413 1.100000 28.08600
11414 SI 11414 SI SI1 11414 1.100000 28.08600
11415 SI 11415 SI SI1 11415 1.100000 28.08600
11416 SI 11416 SI SI1 11416 1.100000 28.08600
11417 SI 11417 SI SI1 11417 1.100000 28.08600
11418 SI 11418 SI SI1 11418 1.100000 28.08600
11419 SI 11419 SI SI1 11419 1.100000 28.08600
11420 SI 11420 SI SI1 11420 1.100000 28.08600
11421 SI 11421 SI SI1 11421 1.100000 28.08600
11422 SI 11422 SI SI1 11422 1.100000 28.08600
11423 SI 11423 SI SI1 11423 1.100000 28.08600
11424 SI 11424 SI SI1 11424 1.100000 28.08600
11425 SI 11425 SI SI1 11425 1.100000 28.08600
11426 SI 11426 SI SI1 11426 1.100000 28.08600
11427 SI 11427 SI SI1 11427 1.100000 28.08600
11428 SI 11428 SI SI1 11428 1.100000 28.08600
11429 SI 11429 SI SI1 11429 1.100000 28.08600
11430 SI 11430 SI SI1 11430 1.100000 28.08600
11431 SI 11431 SI SI1 11431 1.100000 28.08600
11432 SI 11432 SI SI1 11432 1.100000 28.08600
11433 SI 11433 SI SI1 11433 1.100000 28.08600
11434 SI 11434 SI SI1 11434 1.100000 28.08600
11435 SI 11435 SI SI1 11435 1.100000 28.08600
11436 SI 11436 SI SI1 11436 1.100000 28.08600
11437 SI 11437 SI SI1 11437 1.100000 28.08600
11438 SI 11438 SI SI1 11438 1.100000 28.08600
11439 SI 11439 SI SI1 11439 1.100000 28.08600
11440 SI 11440 SI SI1 11440 1.100000 28.08600
11441 SI 11441 SI SI1 11441 1.100000 28.08600
11442 SI 11442 SI SI1 11442 1.100000 28.08600
11443 SI 11443 SI SI1 11443 1.100000 28.08600
11444 SI 11444 SI SI1 11444 1.100000 28.08600
11445 SI 11445 SI SI1 11445 1.100000 28.08600
11446 SI 11446 SI SI1 11446 1.100000 28.08600
11447 SI 11447 SI SI1 11447 1.100000 28.08600
11448 SI 11448 SI SI1 11448 1.100000 28.08600
11449 SI 11449 SI SI1 11449 1.100000 28.08600
11450 SI 11450 SI SI1 11450 1.100000 28.08600
11451 SI 11451 SI SI1 11451 1.100000 28.08600
11452 SI 11452 SI SI1 11452 1.100000 28.08600
11453 SI 11453 SI SI1 11453 1.100000 28.08600
11454 SI 11454 SI SI1 11454 1.100000 28.08600
11455 SI 11455 SI SI1 11455 1.100000 28.08600
11456 SI 11456 SI SI1 11456 1.100000 28.08600
11457 SI 11457 SI SI1 11457 1.100000 28.08600
11458 SI 11458 SI SI1 11458 1.100000 28.08600
11459 SI 11459 SI SI1 11459 1.100000 28.08600
11460 SI 11460 SI SI1 11460 1.100000 28.08600
11461 SI 11461 SI SI1 11461 1.100000 28.08600
11462 SI 11462 SI SI1 11462 1.100000 28.08600
11463 SI 11463 SI SI1 11463 1.100000 28.08600
11464 SI 11464 SI SI1 11464 1.100000 28.08600
11465 SI 11465 SI SI1 11465 1.100000 28.08600
11466 SI 11466 SI SI1 11466 1.100000 28.08600
11467 SI 11467 SI SI1 11467 1.100000 28.08600
11468 SI 11468 SI SI1 11468 1.100000 28.08600
11469 SI 11469 SI SI1 11469 1.100000 28.08600
11470 SI 11470 SI SI1 11470 1.100000 28.08600
11471 SI 11471 SI SI1 11471 1.100000 28.08600
11472 SI 11472 SI SI1 11472 1.100000 28.08600
11473 SI 11473 SI SI1 11473 1.100000 28.08600
11474 SI 11474 SI SI1 11474 1.100000 28.08600
11475 SI 11475 SI SI1 11475 1.100000 28.08600
11476 SI 11476 SI SI1 11476 1.100000 28.08600
11477 SI 11477 SI SI1 11477 1.100000 28.08600
11478 SI 11478 SI SI1 11478 1.100000 28.08600
11479 SI 11479 SI SI1 11479 1.100000 28.08600
11480 SI 11480 SI SI1 11480 1.100000 28.08600
11481 SI 11481 SI SI1 11481 1.100000 28.08600
11482 SI 11482 SI SI1 11482 1.100000 28.08600
11483 SI 11483 SI SI1 11483 1.100000 28.08600
11484 SI 11484 SI SI1 11484 1.100000 28.08600
11485 SI 11485 SI SI1 11485 1.100000 28.08600
11486 SI 11486 SI SI1 11486 1.100000 28.08600
11487 SI 11487 SI SI1 11487 1.100000 28.08600
11488 SI 11488 SI SI1 11488 1.100000 28.08600
11489 SI 11489 SI SI1 11489 1.100000 28.08600
11490 SI 11490 SI SI1 11490 1.100000 28.08600
11491 SI 11491 SI SI1 11491 1.100000 28.08600
11492 SI 11492 SI SI1 11492 1.100000 28.08600
11493 SI 11493 SI SI1 11493 1.100000 28.08600
11494 SI 11494 SI SI1 11494 1.100000 28.08600
11495 SI 11495 SI SI1 11495 1.100000 28.08600
11496 SI 11496 SI SI1 11496 1.100000 28.08600
11497 SI 11497 SI SI1 11497 1.100000 28.08600
11498 SI 11498 SI SI1 11498 1.100000 28.08600
11499 SI 11499 SI SI1 11499 1.100000 28.08600
11500 SI 11500 SI SI1 11500 1.100000 28.08600
11501 SI 11501 SI SI1 11501 1.100000 28.08600
11502 SI 11502 SI SI1 11502 1.100000 28.08600
11503 SI 11503 SI SI1 11503 1.100000 28.08600
11504 SI 11504 SI SI1 11504 1.100000 28.08600
11505 SI 11505 SI SI1 11505 1.100000 28.08600
11506 SI 11506 SI SI1 11506 1.100000 28.08600
11507 SI 11507 SI SI1 11507 1.100000 28.08600
11508 SI 11508 SI SI1 11508 1.100000 28.08600
11509 SI 11509 SI SI1 11509 1.100000 28.08600
11510 SI 11510 SI SI1 11510 1.100000 28.08600
11511 SI 11511 SI SI1 11511 1.100000 28.08600
11512 SI 11512 SI SI1 11512 1.100000 28.08600
11513 SI 11513 SI SI1 11513 1.100000 28.08600
11514 SI 11514 SI SI1 11514 1.100000 28.08600
11515 SI 11515 SI SI1 11515 1.100000 28.08600
11516 SI 11516 SI SI1 11516 1.100000 28.08600
11517 SI 11517 SI SI1 11517 1.100000 28.08600
11518 SI 11518 SI SI1 11518 1.100000 28.08600
11519 SI 11519 SI SI1 11519 1.100000 28.08600
11520 SI 11520 SI SI1 11520 1.100000 28.08600
11521 SI 11521 SI SI1 11521 1.100000 28.08600
11522 SI 11522 SI SI1 11522 1.100000 28.08600
11523 SI 11523 SI SI1 11523 1.100000 28.08600
11524 SI 11524 SI SI1 11524 1.100000 28.08600
11525 SI 11525 SI SI1 11525 1.100000 28.08600
11526 SI 11526 SI SI1 11526 1.100000 28.08600
11527 SI 11527 SI SI1 11527 1.100000 28.08600
11528 SI 11528 SI SI1 11528 1.100000 28.08600
11529 SI 11529 SI SI1 11529 1.100000 28.08600
11530 SI 11530 SI SI1 11530 1.100000 28.08600
11531 SI 11531 SI SI1 11531 1.100000 28.08600
11532 SI 11532 SI SI1 11532 1.100000 28.08600
11533 SI 11533 SI SI1 11533 1.100000 28.08600
11534 SI 11534 SI SI1 11534 1.100000 28.08600
11535 SI 11535 SI SI1 11535 1.100000 28.08600
11536 SI 11536 SI SI1 11536 1.100000 28.08600
11537 SI 11537 SI SI1 11537 1.100000 28.08600
11538 SI 11538 SI SI1 11538 1.100000 28.08600
11539 SI 11539 SI SI1 11539 1.100000 28.08600
11540 SI 11540 SI SI1 11540 1.100000 28.08600
11541 SI 11541 SI SI1 11541 1.100000 28.08600
11542 SI 11542 SI SI1 11542 1.100000 28.08600
11543 SI 11543 SI SI1 11543 1.100000 28.08600
11544 SI 11544 SI SI1 11544 1.100000 28.08600
11545 SI 11545 SI SI1 11545 1.100000 28.08600
11546 SI 11546 SI SI1 11546 1.100000 28.08600
11547 SI 11547 SI SI1 11547 1.100000 28.08600
11548 SI 11548 SI SI1 11548 1.100000 28.08600
11549 SI 11549 SI SI1 11549 1.100000 28.08600
11550 SI 11550 SI SI1 11550 1.100000 28.08600
11551 SI 11551 SI SI1 11551 1.100000 28.08600
11552 SI 11552 SI SI1 11552 1.100000 28.08600
11553 SI 11553 SI SI1 11553 1.100000 28.08600
11554 SI 11554 SI SI1 11554 1.100000 28.08600
11555 SI 11555 SI SI1 11555 1.100000 28.08600
11556 SI 11556 SI SI1 11556 1.100000 28.08600
11557 SI 11557 SI SI1 11557 1.100000 28.08600
11558 SI 11558 SI SI1 11558 1.100000 28.08600
11559 SI 11559 SI SI1 11559 1.100000 28.08600
11560 SI 11560 SI SI1 11560 1.100000 28.08600
11561 SI 11561 SI SI1 11561 1.100000 28.08600
11562 SI 11562 SI SI1 11562 1.100000 28.08600
11563 SI 11563 SI SI1 11563 1.100000 28.08600
11564 SI 11564 SI SI1 11564 1.100000 28.08600
11565 SI 11565 SI SI1 11565 1.100000 28.08600
11566 SI 11566 SI SI1 11566 1.100000 28.08600
11567 SI 11567 SI SI1 11567 1.100000 28.08600
11568 SI 11568 SI SI1 11568 1.100000 28.08600
11569 SI 11569 SI SI1 11569 1.100000 28.08600
11570 SI 11570 SI SI1 11570 1.100000 28.08600
11571 SI 11571 SI SI1 11571 1.100000 28.08600
11572 SI 11572 SI SI1 11572 1.100000 28.08600
11573 SI 11573 SI SI1 11573 1.100000 28.08600
11574 SI 11574 SI SI1 11574 1.100000 28.08600
11575 SI 11575 SI SI1 11575 1.100000 28.08600
11576 SI 11576 SI SI1 11576 1.100000 28.08600
11577 SI 11577 SI SI1 11577 1.100000 28.08600
11578 SI 11578 SI SI1 11578 1.100000 28.08600
11579 SI 11579 SI SI1 11579 1.100000 28.08600
11580 SI 11580 SI SI1 11580 1.100000 28.08600
11581 SI 11581 SI SI1 11581 1.100000 28.08600
11582 SI 11582 SI SI1 11582 1.100000 28.08600
11583 SI 11583 SI SI1 11583 1.100000 28.08600
11584 SI 11584 SI SI1 11584 1.100000 28.08600
11585 SI 11585 SI SI1 11585 1.100000 28.08600
11586 SI 11586 SI SI1 11586 1.100000 28.08600
11587 SI 11587 SI SI1 11587 1.100000 28.08600
11588 SI 11588 SI SI1 11588 1.100000 28.08600
11589 SI 11589 SI SI1 11589 1.100000 28.08600
11590 SI 11590 SI SI1 11590 1.100000 28.08600
11591 SI 11591 SI SI1 11591 1.100000 28.08600
11592 SI 11592 SI SI1 11592 1.100000 28.08600
11593 SI 11593 SI SI1 11593 1.100000 28.08600
11594 SI 11594 SI SI1 11594 1.100000 28.08600
11595 SI 11595 SI SI1 11595 1.100000 28.08600
11596 SI 11596 SI SI1 11596 1.100000 28.08600
11597 SI 11597 SI SI1 11597 1.100000 28.08600
11598 SI 11598 SI SI1 11598 1.100000 28.08600
11599 SI 11599 SI SI1 11599 1.100000 28.08600
11600 SI 11600 SI SI1 11600 1.100000 28.08600
11601 SI 11601 SI SI1 11601 1.100000 28.08600
11602 SI 11602 SI SI1 11602 1.100000 28.08600
11603 SI 11603 SI SI1 11603 1.100000 28.08600
11604 SI 11604 SI SI1 11604 1.100000 28.08600
11605 SI 11605 SI SI1 11605 1.100000 28.08600
11606 SI 11606 SI SI1 11606 1.100000 28.08600
11607 SI 11607 SI SI1 11607 1.100000 28.08600
11608 SI 11608 SI SI1 11608 1.100000 28.08600
11609 SI 11609 SI SI1 11609 1.100000 28.08600
11610 SI 11610 SI SI1 11610 1.100000 28.08600
11611 SI 11611 SI SI1 11611 1.100000 28.08600
11612 SI 11612 SI SI1 11612 1.100000 28.08600
11613 SI 11613 SI SI1 11613 1.100000 28.08600
11614 SI 11614 SI SI1 11614 1.100000 28.08600
11615 SI 11615 SI SI1 11615 1.100000 28.08600
11616 SI 11616 SI SI1 11616 1.100000 28.08600
11617 SI 11617 SI SI1 11617 1.100000 28.08600
11618 SI 11618 SI SI1 11618 1.100000 28.08600
11619 SI 11619 SI SI1 11619 1.100000 28.08600
11620 SI 11620 SI SI1 11620 1.100000 28.08600
11621 SI 11621 SI SI1 11621 1.100000 28.08600
11622 SI 11622 SI SI1 11622 1.100000 28.08600
11623 SI 11623 SI SI1 11623 1.100000 28.08600
11624 SI 11624 SI SI1 11624 1.100000 28.08600
11625 SI 11625 SI SI1 11625 1.100000 28.08600
11626 SI 11626 SI SI1 11626 1.100000 28.08600
11627 SI 11627 SI SI1 11627 1.100000 28.08600
11628 SI 11628 SI SI1 11628 1.100000 28.08600
11629 SI 11629 SI SI1 11629 1.100000 28.08600
11630 SI 11630 SI SI1 11630 1.100000 28.08600
11631 SI 11631 SI SI1 11631 1.100000 28.08600
11632 SI 11632 SI SI1 11632 1.100000 28.08600
11633 SI 11633 SI SI1 11633 1.100000 28.08600
11634 SI 11634 SI SI1 11634 1.100000 28.08600
11635 SI 11635 SI SI1 11635 1.100000 28.08600
11636 SI 11636 SI SI1 11636 1.100000 28.08600
11637 SI 11637 SI SI1 11637 1.100000 28.08600
11638 SI 11638 SI SI1 11638 1.100000 28.08600
11639 SI 11639 SI SI1 11639 1.100000 28.08600
11640 SI 11640 SI SI1 11640 1.100000 28.08600
11641 SI 11641 SI SI1 11641 1.100000 28.08600
11642 SI 11642 SI SI1 11642 1.100000 28.08600
11643 SI 11643 SI SI1 11643 1.100000 28.08600
11644 SI 11644 SI SI1 11644 1.100000 28.08600
11645 SI 11645 SI SI1 11645 1.100000 28.08600
11646 SI 11646 SI SI1 11646 1.100000 28.08600
11647 SI 11647 SI SI1 11647 1.100000 28.08600
11648 SI 11648 SI SI1 11648 1.100000 28.08600
11649 SI 11649 SI SI1 11649 1.100000 28.08600
11650 SI 11650 SI SI1 11650 1.100000 28.08600
11651 SI 11651 SI SI1 11651 1.100000 28.08600
11652 SI 11652 SI SI1 11652 1.100000 28.08600
11653 SI 11653 SI SI1 11653 1.100000 28.08600
11654 SI 11654 SI SI1 11654 1.100000 28.08600
11655 SI 11655 SI SI1 11655 1.100000 28.08600
11656 SI 11656 SI SI1 11656 1.100000 28.08600
11657 SI 11657 SI SI1 11657 1.100000 28.08600
11658 SI 11658 SI SI1 11658 1.100000 28.08600
11659 SI 11659 SI SI1 11659 1.100000 28.08600
11660 SI 11660 SI SI1 11660 1.100000 28.08600
11661 SI 11661 SI SI1 11661 1.100000 28.08600
11662 SI 11662 SI SI1 11662 1.100000 28.08600
11663 SI 11663 SI SI1 11663 1.100000 28.08600
11664 SI 11664 SI SI1 11664 1.100000 28.08600
11665 SI 11665 SI SI1 11665 1.100000 28.08600
11666 SI 11666 SI SI1 11666 1.100000 28.08600
11667 SI 11667 SI SI1 11667 1.100000 28.08600
11668 SI 11668 SI SI1 11668 1.100000 28.08600
11669 SI 11669 SI SI1 11669 1.100000 28.08600
11670 SI 11670 SI SI1 11670 1.100000 28.08600
11671 SI 11671 SI SI1 11671 1.100000 28.08600
11672 SI 11672 SI SI1 11672 1.100000 28.08600
11673 SI 11673 SI SI1 11673 1.100000 28.08600
11674 SI 11674 SI SI1 11674 1.100000 28.08600
11675 SI 11675 SI SI1 11675 1.100000 28.08600
11676 SI 11676 SI SI1 11676 1.100000 28.08600
11677 SI 11677 SI SI1 11677 1.100000 28.08600
11678 SI 11678 SI SI1 11678 1.100000 28.08600
11679 SI 11679 SI SI1 11679 1.100000 28.08600
11680 SI 11680 SI SI1 11680 1.100000 28.08600
11681 SI 11681 SI SI1 11681 1.100000 28.08600
11682 SI 11682 SI SI1 11682 1.100000 28.08600
11683 SI 11683 SI SI1 11683 1.100000 28.08600
11684 SI 11684 SI SI1 11684 1.100000 28.08600
11685 SI 11685 SI SI1 11685 1.100000 28.08600
11686 SI 11686 SI SI1 11686 1.100000 28.08600
11687 SI 11687 SI SI1 11687 1.100000 28.08600
11688 SI 11688 SI SI1 11688 1.100000 28.08600
11689 SI 11689 SI SI1 11689 1.100000 28.08600
11690 SI 11690 SI SI1 11690 1.100000 28.08600
11691 SI 11691 SI SI1 11691 1.100000 28.08600
11692 SI 11692 SI SI1 11692 1.100000 28.08600
11693 SI 11693 SI SI1 11693 1.100000 28.08600
11694 SI 11694 SI SI1 11694 1.100000 28.08600
11695 SI 11695 SI SI1 11695 1.100000 28.08600
11696 SI 11696 SI SI1 11696 1.100000 28.08600
11697 SI 11697 SI SI1 11697 1.100000 28.08600
11698 SI 11698 SI SI1 11698 1.100000 28.08600
11699 SI 11699 SI SI1 11699 1.100000 28.08600
11700 SI 11700 SI SI1 11700 1.100000 28.08600
11701 SI 11701 SI SI1 11701 1.100000 28.08600
11702 SI 11702 SI SI1 11702 1.100000 28.08600
11703 SI 11703 SI SI1 11703 1.100000 28.08600
11704 SI 11704 SI SI1 11704 1.100000 28.08600
11705 SI 11705 SI SI1 11705 1.100000 28.08600
11706 SI 11706 SI SI1 11706 1.100000 28.08600
11707 SI 11707 SI SI1 11707 1.100000 28.08600
11708 SI 11708 SI SI1 11708 1.100000 28.08600
11709 SI 11709 SI SI1 11709 1.100000 28.08600
11710 SI 11710 SI SI1 11710 1.100000 28.08600
11711 SI 11711 SI SI1 11711 1.100000 28.08600
11712 SI 11712 SI SI1 11712 1.100000 28.08600
11713 SI 11713 SI SI1 11713 1.100000 28.08600
11714 SI 11714 SI SI1 11714 1.100000 28.08600
11715 SI 11715 SI SI1 11715 1.100000 28.08600
11716 SI 11716 SI SI1 11716 1.100000 28.08600
11717 SI 11717 SI SI1 11717 1.100000 28.08600
11718 SI 11718 SI SI1 11718 1.100000 28.08600
11719 SI 11719 SI SI1 11719 1.100000 28.08600
11720 SI 11720 SI SI1 11720 1.100000 28.08600
11721 SI 11721 SI SI1 11721 1.100000 28.08600
11722 SI 11722 SI SI1 11722 1.100000 28.08600
11723 SI 11723 SI SI1 11723 1.100000 28.08600
11724 SI 11724 SI SI1 11724 1.100000 28.08600
11725 SI 11725 SI SI1 11725 1.100000 28.08600
11726 SI 11726 SI SI1 11726 1.100000 28.08600
11727 SI 11727 SI SI1 11727 1.100000 28.08600
11728 SI 11728 SI SI1 11728 1.100000 28.08600
11729 SI 11729 SI SI1 11729 1.100000 28.08600
11730 SI 11730 SI SI1 11730 1.100000 28.08600
11731 SI 11731 SI SI1 11731 1.100000 28.08600
11732 SI 11732 SI SI1 11732 1.100000 28.08600
11733 SI 11733 SI SI1 11733 1.100000 28.08600
11734 SI 11734 SI SI1 11734 1.100000 28.08600
11735 SI 11735 SI SI1 11735 1.100000 28.08600
11736 SI 11736 SI SI1 11736 1.100000 28.08600
11737 SI 11737 SI SI1 11737 1.100000 28.08600
11738 SI 11738 SI SI1 11738 1.100000 28.08600
11739 SI 11739 SI SI1 11739 1.100000 28.08600
11740 SI 11740 SI SI1 11740 1.100000 28.08600
11741 SI 11741 SI SI1 11741 1.100000 28.08600
11742 SI 11742 SI SI1 11742 1.100000 28.08600
11743 SI 11743 SI SI1 11743 1.100000 28.08600
11744 SI 11744 SI SI1 11744 1.100000 28.08600
11745 SI 11745 SI SI1 11745 1.100000 28.08600
11746 SI 11746 SI SI1 11746 1.100000 28.08600
11747 SI 11747 SI SI1 11747 1.100000 28.08600
11748 SI 11748 SI SI1 11748 1.100000 28.08600
11749 SI 11749 SI SI1 11749 1.100000 28.08600
11750 SI 11750 SI SI1 11750 1.100000 28.08600
11751 SI 11751 SI SI1 11751 1.100000 28.08600
11752 SI 11752 SI SI1 11752 1.100000 28.08600
11753 SI 11753 SI SI1 11753 1.100000 28.08600
11754 SI 11754 SI SI1 11754 1.100000 28.08600
11755 SI 11755 SI SI1 11755 1.100000 28.08600
11756 SI 11756 SI SI1 11756 1.100000 28.08600
11757 SI 11757 SI SI1 11757 1.100000 28.08600
11758 SI 11758 SI SI1 11758 1.100000 28.08600
11759 SI 11759 SI SI1 11759 1.100000 28.08600
11760 SI 11760 SI SI1 11760 1.100000 28.08600
11761 SI 11761 SI SI1 11761 1.100000 28.08600
11762 SI 11762 SI SI1 11762 1.100000 28.08600
11763 SI 11763 SI SI1 11763 1.100000 28.08600
11764 SI 11764 SI SI1 11764 1.100000 28.08600
11765 SI 11765 SI SI1 11765 1.100000 28.08600
11766 SI 11766 SI SI1 11766 1.100000 28.08600
11767 SI 11767 SI SI1 11767 1.100000 28.08600
11768 SI 11768 SI SI1 11768 1.100000 28.08600
11769 SI 11769 SI SI1 11769 1.100000 28.08600
11770 SI 11770 SI SI1 11770 1.100000 28.08600
11771 SI 11771 SI SI1 11771 1.100000 28.08600
11772 SI 11772 SI SI1 11772 1.100000 28.08600
11773 SI 11773 SI SI1 11773 1.100000 28.08600
11774 SI 11774 SI SI1 11774 1.100000 28.08600
11775 SI 11775 SI SI1 11775 1.100000 28.08600
11776 SI 11776 SI SI1 11776 1.100000 28.08600
11777 SI 11777 SI SI1 11777 1.100000 28.08600
11778 SI 11778 SI SI1 11778 1.100000 28.08600
11779 SI 11779 SI SI1 11779 1.100000 28.08600
11780 SI 11780 SI SI1 11780 1.100000 28.08600
11781 SI 11781 SI SI1 11781 1.100000 28.08600
11782 SI 11782 SI SI1 11782 1.100000 28.08600
11783 SI 11783 SI SI1 11783 1.100000 28.08600
11784 SI 11784 SI SI1 11784 1.100000 28.08600
11785 SI 11785 SI SI1 11785 1.100000 28.08600
11786 SI 11786 SI SI1 11786 1.100000 28.08600
11787 SI 11787 SI SI1 11787 1.100000 28.08600
11788 SI 11788 SI SI1 11788 1.100000 28.08600
11789 SI 11789 SI SI1 11789 1.100000 28.08600
11790 SI 11790 SI SI1 11790 1.100000 28.08600
11791 SI 11791 SI SI1 11791 1.100000 28.08600
11792 SI 11792 SI SI1 11792 1.100000 28.08600
11793 SI 11793 SI SI1 11793 1.100000 28.08600
11794 SI 11794 SI SI1 11794 1.100000 28.08600
11795 SI 11795 SI SI1 11795 1.100000 28.08600
11796 SI 11796 SI SI1 11796 1.100000 28.08600
11797 SI 11797 SI SI1 11797 1.100000 28.08600
11798 SI 11798 SI SI1 11798 1.100000 28.08600
11799 SI 11799 SI SI1 11799 1.100000 28.08600
11800 SI 11800 SI SI1 11800 1.100000 28.08600
11801 SI 11801 SI SI1 11801 1.100000 28.08600
11802 SI 11802 SI SI1 11802 1.100000 28.08600
11803 SI 11803 SI SI1 11803 1.100000 28.08600
11804 SI 11804 SI SI1 11804 1.100000 28.08600
11805 SI 11805 SI SI1 11805 1.100000 28.08600
11806 SI 11806 SI SI1 11806 1.100000 28.08600
11807 SI 11807 SI SI1 11807 1.100000 28.08600
11808 SI 11808 SI SI1 11808 1.100000 28.08600
11809 SI 11809 SI SI1 11809 1.100000 28.08600
11810 SI 11810 SI SI1 11810 1.100000 28.08600
11811 SI 11811 SI SI1 11811 1.100000 28.08600
11812 SI 11812 SI SI1 11812 1.100000 28.08600
11813 SI 11813 SI SI1 11813 1.100000 28.08600
11814 SI 11814 SI SI1 11814 1.100000 28.08600
11815 SI 11815 SI SI1 11815 1.100000 28.08600
11816 SI 11816 SI SI1 11816 1.100000 28.08600
11817 SI 11817 SI SI1 11817 1.100000 28.08600
11818 SI 11818 SI SI1 11818 1.100000 28.08600
11819 SI 11819 SI SI1 11819 1.100000 28.08600
11820 SI 11820 SI SI1 11820 1.100000 28.08600
11821 SI 11821 SI SI1 11821 1.100000 28.08600
11822 SI 11822 SI SI1 11822 1.100000 28.08600
11823 SI 11823 SI SI1 11823 1.100000 28.08600
11824 SI 11824 SI SI1 11824 1.100000 28.08600
11825 SI 11825 SI SI1 11825 1.100000 28.08600
11826 SI 11826 SI SI1 11826 1.100000 28.08600
11827 SI 11827 SI SI1 11827 1.100000 28.08600
11828 SI 11828 SI SI1 11828 1.100000 28.08600
11829 SI 11829 SI SI1 11829 1.100000 28.08600
11830 SI 11830 SI SI1 11830 1.100000 28.08600
11831 SI 11831 SI SI1 11831 1.100000 28.08600
11832 SI 11832 SI SI1 11832 1.100000 28.08600
11833 SI 11833 SI SI1 11833 1.100000 28.08600
11834 SI 11834 SI SI1 11834 1.100000 28.08600
11835 SI 11835 SI SI1 11835 1.100000 28.08600
11836 SI 11836 SI SI1 11836 1.100000 28.08600
11837 SI 11837 SI SI1 11837 1.100000 28.08600
11838 SI 11838 SI SI1 11838 1.100000 28.08600
11839 SI 11839 SI SI1 11839 1.100000 28.08600
11840 SI 11840 SI SI1 11840 1.100000 28.08600
11841 SI 11841 SI SI1 11841 1.100000 28.08600
11842 SI 11842 SI SI1 11842 1.100000 28.08600
11843 SI 11843 SI SI1 11843 1.100000 28.08600
11844 SI 11844 SI SI1 11844 1.100000 28.08600
11845 SI 11845 SI SI1 11845 1.100000 28.08600
11846 SI 11846 SI SI1 11846 1.100000 28.08600
11847 SI 11847 SI SI1 11847 1.100000 28.08600
11848 SI 11848 SI SI1 11848 1.100000 28.08600
11849 SI 11849 SI SI1 11849 1.100000 28.08600
11850 SI 11850 SI SI1 11850 1.100000 28.08600
11851 SI 11851 SI SI1 11851 1.100000 28.08600
11852 SI 11852 SI SI1 11852 1.100000 28.08600
11853 SI 11853 SI SI1 11853 1.100000 28.08600
11854 SI 11854 SI SI1 11854 1.100000 28.08600
11855 SI 11855 SI SI1 11855 1.100000 28.08600
11856 SI 11856 SI SI1 11856 1.100000 28.08600
11857 SI 11857 SI SI1 11857 1.100000 28.08600
11858 SI 11858 SI SI1 11858 1.100000 28.08600
11859 SI 11859 SI SI1 11859 1.100000 28.08600
11860 SI 11860 SI SI1 11860 1.100000 28.08600
11861 SI 11861 SI SI1 11861 1.100000 28.08600
11862 SI 11862 SI SI1 11862 1.100000 28.08600
11863 SI 11863 SI SI1 11863 1.100000 28.08600
11864 SI 11864 SI SI1 11864 1.100000 28.08600
11865 SI 11865 SI SI1 11865 1.100000 28.08600
11866 SI 11866 SI SI1 11866 1.100000 28.08600
11867 SI 11867 SI SI1 11867 1.100000 28.08600
11868 SI 11868 SI SI1 11868 1.100000 28.08600
11869 SI 11869 SI SI1 11869 1.100000 28.08600
11870 SI 11870 SI SI1 11870 1.100000 28.08600
11871 SI 11871 SI SI1 11871 1.100000 28.08600
11872 SI 11872 SI SI1 11872 1.100000 28.08600
11873 SI 11873 SI SI1 11873 1.100000 28.08600
11874 SI 11874 SI SI1 11874 1.100000 28.08600
11875 SI 11875 SI SI1 11875 1.100000 28.08600
11876 SI 11876 SI SI1 11876 1.100000 28.08600
11877 SI 11877 SI SI1 11877 1.100000 28.08600
11878 SI 11878 SI SI1 11878 1.100000 28.08600
11879 SI 11879 SI SI1 11879 1.100000 28.08600
11880 SI 11880 SI SI1 11880 1.100000 28.08600
11881 SI 11881 SI SI1 11881 1.100000 28.08600
11882 SI 11882 SI SI1 11882 1.100000 28.08600
11883 SI 11883 SI SI1 11883 1.100000 28.08600
11884 SI 11884 SI SI1 11884 1.100000 28.08600
11885 SI 11885 SI SI1 11885 1.100000 28.08600
11886 SI 11886 SI SI1 11886 1.100000 28.08600
11887 SI 11887 SI SI1 11887 1.100000 28.08600
11888 SI 11888 SI SI1 11888 1.100000 28.08600
11889 SI 11889 SI SI1 11889 1.100000 28.08600
11890 SI 11890 SI SI1 11890 1.100000 28.08600
11891 SI 11891 SI SI1 11891 1.100000 28.08600
11892 SI 11892 SI SI1 11892 1.100000 28.08600
11893 SI 11893 SI SI1 11893 1.100000 28.08600
11894 SI 11894 SI SI1 11894 1.100000 28.08600
11895 SI 11895 SI SI1 11895 1.100000 28.08600
11896 SI 11896 SI SI1 11896 1.100000 28.08600
11897 SI 11897 SI SI1 11897 1.100000 28.08600
11898 SI 11898 SI SI1 11898 1.100000 28.08600
11899 SI 11899 SI SI1 11899 1.100000 28.08600
11900 SI 11900 SI SI1 11900 1.100000 28.08600
11901 SI 11901 SI SI1 11901 1.100000 28.08600
11902 SI 11902 SI SI1 11902 1.100000 28.08600
11903 SI 11903 SI SI1 11903 1.100000 28.08600
11904 SI 11904 SI SI1 11904 1.100000 28.08600
11905 SI 11905 SI SI1 11905 1.100000 28.08600
11906 SI 11906 SI SI1 11906 1.100000 28.08600
11907 SI 11907 SI SI1 11907 1.100000 28.08600
11908 SI 11908 SI SI1 11908 1.100000 28.08600
11909 SI 11909 SI SI1 11909 1.100000 28.08600
11910 SI 11910 SI SI1 11910 1.100000 28.08600
11911 SI 11911 SI SI1 11911 1.100000 28.08600
11912 SI 11912 SI SI1 11912 1.100000 28.08600
11913 SI 11913 SI SI1 11913 1.100000 28.08600
11914 SI 11914 SI SI1 11914 1.100000 28.08600
11915 SI 11915 SI SI1 11915 1.100000 28.08600
11916 SI 11916 SI SI1 11916 1.100000 28.08600
11917 SI 11917 SI SI1 11917 1.100000 28.08600
11918 SI 11918 SI SI1 11918 1.100000 28.08600
11919 SI 11919 SI SI1 11919 1.100000 28.08600
11920 SI 11920 SI SI1 11920 1.100000 28.08600
11921 SI 11921 SI SI1 11921 1.100000 28.08600
11922 SI 11922 SI SI1 11922 1.100000 28.08600
11923 SI 11923 SI SI1 11923 1.100000 28.08600
11924 SI 11924 SI SI1 11924 1.100000 28.08600
11925 SI 11925 SI SI1 11925 1.100000 28.08600
11926 SI 11926 SI SI1 11926 1.100000 28.08600
11927 SI 11927 SI SI1 11927 1.100000 28.08600
11928 SI 11928 SI SI1 11928 1.100000 28.08600
11929 SI 11929 SI SI1 11929 1.100000 28.08600
11930 SI 11930 SI SI1 11930 1.100000 28.08600
11931 SI 11931 SI SI1 11931 1.100000 28.08600
11932 SI 11932 SI SI1 11932 1.100000 28.08600
11933 SI 11933 SI SI1 11933 1.100000 28.08600
11934 SI 11934 SI SI1 11934 1.100000 28.08600
11935 SI 11935 SI SI1 11935 1.100000 28.08600
11936 SI 11936 SI SI1 11936 1.100000 28.08600
11937 SI 11937 SI SI1 11937 1.100000 28.08600
11938 SI 11938 SI SI1 11938 1.100000 28.08600
11939 SI 11939 SI SI1 11939 1.100000 28.08600
11940 SI 11940 SI SI1 11940 1.100000 28.08600
11941 SI 11941 SI SI1 11941 1.100000 28.08600
11942 SI 11942 SI SI1 11942 1.100000 28.08600
11943 SI 11943 SI SI1 11943 1.100000 28.08600
11944 SI 11944 SI SI1 11944 1.100000 28.08600
11945 SI 11945 SI SI1 11945 1.100000 28.08600
11946 SI 11946 SI SI1 11946 1.100000 28.08600
11947 SI 11947 SI SI1 11947 1.100000 28.08600
11948 SI 11948 SI SI1 11948 1.100000 28.08600
11949 SI 11949 SI SI1 11949 1.100000 28.08600
11950 SI 11950 SI SI1 11950 1.100000 28.08600
11951 SI 11951 SI SI1 11951 1.100000 28.08600
11952 SI 11952 SI SI1 11952 1.100000 28.08600
11953 SI 11953 SI SI1 11953 1.100000 28.08600
11954 SI 11954 SI SI1 11954 1.100000 28.08600
11955 SI 11955 SI SI1 11955 1.100000 28.08600
11956 SI 11956 SI SI1 11956 1.100000 28.08600
11957 SI 11957 SI SI1 11957 1.100000 28.08600
11958 SI 11958 SI SI1 11958 1.100000 28.08600
11959 SI 11959 SI SI1 11959 1.100000 28.08600
11960 SI 11960 SI SI1 11960 1.100000 28.08600
11961 SI 11961 SI SI1 11961 1.100000 28.08600
11962 SI 11962 SI SI1 11962 1.100000 28.08600
11963 SI 11963 SI SI1 11963 1.100000 28.08600
11964 SI 11964 SI SI1 11964 1.100000 28.08600
11965 SI 11965 SI SI1 11965 1.100000 28.08600
11966 SI 11966 SI SI1 11966 1.100000 28.08600
11967 SI 11967 SI SI1 11967 1.100000 28.08600
11968 SI 11968 SI SI1 11968 1.100000 28.08600
11969 SI 11969 SI SI1 11969 1.100000 28.08600
11970 SI 11970 SI SI1 11970 1.100000 28.08600
11971 SI 11971 SI SI1 11971 1.100000 28.08600
11972 SI 11972 SI SI1 11972 1.100000 28.08600
11973 SI 11973 SI SI1 11973 1.100000 28.08600
11974 SI 11974 SI SI1 11974 1.100000 28.08600
11975 SI 11975 SI SI1 11975 1.100000 28.08600
11976 SI 11976 SI SI1 11976 1.100000 28.08600
11977 SI 11977 SI SI1 11977 1.100000 28.08600
11978 SI 11978 SI SI1 11978 1.100000 28.08600
11979 SI 11979 SI SI1 11979 1.100000 28.08600
11980 SI 11980 SI SI1 11980 1.100000 28.08600
11981 SI 11981 SI SI1 11981 1.100000 28.08600
11982 SI 11982 SI SI1 11982 1.100000 28.08600
11983 SI 11983 SI SI1 11983 1.100000 28.08600
11984 SI 11984 SI SI1 11984 1.100000 28.08600
11985 SI 11985 SI SI1 11985 1.100000 28.08600
11986 SI 11986 SI SI1 11986 1.100000 28.08600
11987 SI 11987 SI SI1 11987 1.100000 28.08600
11988 SI 11988 SI SI1 11988 1.100000 28.08600
11989 SI 11989 SI SI1 11989 1.100000 28.08600
11990 SI 11990 SI SI1 11990 1.100000 28.08600
11991 SI 11991 SI SI1 11991 1.100000 28.08600
11992 SI 11992 SI SI1 11992 1.100000 28.08600
11993 SI 11993 SI SI1 11993 1.100000 28.08600
11994 SI 11994 SI SI1 11994 1.100000 28.08600
11995 SI 11995 SI SI1 11995 1.100000 28.08600
11996 SI 11996 SI SI1 11996 1.100000 28.08600
11997 SI 11997 SI SI1 11997 1.100000 28.08600
11998 SI 11998 SI SI1 11998 1.100000 28.08600
11999 SI 11999 SI SI1 11999 1.100000 28.08600
12000 SI 12000 SI SI1 12000 1.100000 28.08600
12001 SI 12001 SI SI1 12001 1.100000 28.08600
12002 SI 12002 SI SI1 12002 1.100000 28.08600
12003 SI 12003 SI SI1 12003 1.100000 28.08600
12004 SI 12004 SI SI1 12004 1.100000 28.08600
12005 SI 12005 SI SI1 12005 1.100000 28.08600
12006 SI 12006 SI SI1 12006 1.100000 28.08600
12007 SI 12007 SI SI1 12007 1.100000 28.08600
12008 SI 12008 SI SI1 12008 1.100000 28.08600
12009 SI 12009 SI SI1 12009 1.100000 28.08600
12010 SI 12010 SI SI1 12010 1.100000 28.08600
12011 SI 12011 SI SI1 12011 1.100000 28.08600
12012 SI 12012 SI SI1 12012 1.100000 28.08600
12013 SI 12013 SI SI1 12013 1.100000 28.08600
12014 SI 12014 SI SI1 12014 1.100000 28.08600
12015 SI 12015 SI SI1 12015 1.100000 28.08600
12016 SI 12016 SI SI1 12016 1.100000 28.08600
12017 SI 12017 SI SI1 12017 1.100000 28.08600
12018 SI 12018 SI SI1 12018 1.100000 28.08600
12019 SI 12019 SI SI1 12019 1.100000 28.08600
12020 SI 12020 SI SI1 12020 1.100000 28.08600
12021 SI 12021 SI SI1 12021 1.100000 28.08600
12022 SI 12022 SI SI1 12022 1.100000 28.08600
12023 SI 12023 SI SI1 12023 1.100000 28.08600
12024 SI 12024 SI SI1 12024 1.100000 28.08600
12025 SI 12025 SI SI1 12025 1.100000 28.08600
12026 SI 12026 SI SI1 12026 1.100000 28.08600
12027 SI 12027 SI SI1 12027 1.100000 28.08600
12028 SI 12028 SI SI1 12028 1.100000 28.08600
12029 SI 12029 SI SI1 12029 1.100000 28.08600
12030 SI 12030 SI SI1 12030 1.100000 28.08600
12031 SI 12031 SI SI1 12031 1.100000 28.08600
12032 SI 12032 SI SI1 12032 1.100000 28.08600
12033 SI 12033 SI SI1 12033 1.100000 28.08600
12034 SI 12034 SI SI1 12034 1.100000 28.08600
12035 SI 12035 SI SI1 12035 1.100000 28.08600
12036 SI 12036 SI SI1 12036 1.100000 28.08600
12037 SI 12037 SI SI1 12037 1.100000 28.08600
12038 SI 12038 SI SI1 12038 1.100000 28.08600
12039 SI 12039 SI SI1 12039 1.100000 28.08600
12040 SI 12040 SI SI1 12040 1.100000 28.08600
12041 SI 12041 SI SI1 12041 1.100000 28.08600
12042 SI 12042 SI SI1 12042 1.100000 28.08600
12043 SI 12043 SI SI1 12043 1.100000 28.08600
12044 SI 12044 SI SI1 12044 1.100000 28.08600
12045 SI 12045 SI SI1 12045 1.100000 28.08600
12046 SI 12046 SI SI1 12046 1.100000 28.08600
12047 SI 12047 SI SI1 12047 1.100000 28.08600
12048 SI 12048 SI SI1 12048 1.100000 28.08600
12049 SI 12049 SI SI1 12049 1.100000 28.08600
12050 SI 12050 SI SI1 12050 1.100000 28.08600
12051 SI 12051 SI SI1 12051 1.100000 28.08600
12052 SI 12052 SI SI1 12052 1.100000 28.08600
12053 SI 12053 SI SI1 12053 1.100000 28.08600
12054 SI 12054 SI SI1 12054 1.100000 28.08600
12055 SI 12055 SI SI1 12055 1.100000 28.08600
12056 SI 12056 SI SI1 12056 1.100000 28.08600
12057 SI 12057 SI SI1 12057 1.100000 28.08600
12058 SI 12058 SI SI1 12058 1.100000 28.08600
12059 SI 12059 SI SI1 12059 1.100000 28.08600
12060 SI 12060 SI SI1 12060 1.100000 28.08600
12061 SI 12061 SI SI1 12061 1.100000 28.08600
12062 SI 12062 SI SI1 12062 1.100000 28.08600
12063 SI 12063 SI SI1 12063 1.100000 28.08600
12064 SI 12064 SI SI1 12064 1.100000 28.08600
12065 SI 12065 SI SI1 12065 1.100000 28.08600
12066 SI 12066 SI SI1 12066 1.100000 28.08600
12067 SI 12067 SI SI1 12067 1.100000 28.08600
12068 SI 12068 SI SI1 12068 1.100000 28.08600
12069 SI 12069 SI SI1 12069 1.100000 28.08600
12070 SI 12070 SI SI1 12070 1.100000 28.08600
12071 SI 12071 SI SI1 12071 1.100000 28.08600
12072 SI 12072 SI SI1 12072 1.100000 28.08600
12073 SI 12073 SI SI1 12073 1.100000 28.08600
12074 SI 12074 SI SI1 12074 1.100000 28.08600
12075 SI 12075 SI SI1 12075 1.100000 28.08600
12076 SI 12076 SI SI1 12076 1.100000 28.08600
12077 SI 12077 SI SI1 12077 1.100000 28.08600
12078 SI 12078 SI SI1 12078 1.100000 28.08600
12079 SI 12079 SI SI1 12079 1.100000 28.08600
12080 SI 12080 SI SI1 12080 1.100000 28.08600
12081 SI 12081 SI SI1 12081 1.100000 28.08600
12082 SI 12082 SI SI1 12082 1.100000 28.08600
12083 SI 12083 SI SI1 12083 1.100000 28.08600
12084 SI 12084 SI SI1 12084 1.100000 28.08600
12085 SI 12085 SI SI1 12085 1.100000 28.08600
12086 SI 12086 SI SI1 12086 1.100000 28.08600
12087 SI 12087 SI SI1 12087 1.100000 28.08600
12088 SI 12088 SI SI1 12088 1.100000 28.08600
12089 SI 12089 SI SI1 12089 1.100000 28.08600
12090 SI 12090 SI SI1 12090 1.100000 28.08600
12091 SI 12091 SI SI1 12091 1.100000 28.08600
12092 SI 12092 SI SI1 12092 1.100000 28.08600
12093 SI 12093 SI SI1 12093 1.100000 28.08600
12094 SI 12094 SI SI1 12094 1.100000 28.08600
12095 SI 12095 SI SI1 12095 1.100000 28.08600
12096 SI 12096 SI SI1 12096 1.100000 28.08600
12097 SI 12097 SI SI1 12097 1.100000 28.08600
12098 SI 12098 SI SI1 12098 1.100000 28.08600
12099 SI 12099 SI SI1 12099 1.100000 28.08600
12100 SI 12100 SI SI1 12100 1.100000 28.08600
12101 SI 12101 SI SI1 12101 1.100000 28.08600
12102 SI 12102 SI SI1 12102 1.100000 28.08600
12103 SI 12103 SI SI1 12103 1.100000 28.08600
12104 SI 12104 SI SI1 12104 1.100000 28.08600
12105 SI 12105 SI SI1 12105 1.100000 28.08600
12106 SI 12106 SI SI1 12106 1.100000 28.08600
12107 SI 12107 SI SI1 12107 1.100000 28.08600
12108 SI 12108 SI SI1 12108 1.100000 28.08600
12109 SI 12109 SI SI1 12109 1.100000 28.08600
12110 SI 12110 SI SI1 12110 1.100000 28.08600
12111 SI 12111 SI SI1 12111 1.100000 28.08600
12112 SI 12112 SI SI1 12112 1.100000 28.08600
12113 SI 12113 SI SI1 12113 1.100000 28.08600
12114 SI 12114 SI SI1 12114 1.100000 28.08600
12115 SI 12115 SI SI1 12115 1.100000 28.08600
12116 SI 12116 SI SI1 12116 1.100000 28.08600
12117 SI 12117 SI SI1 12117 1.100000 28.08600
12118 SI 12118 SI SI1 12118 1.100000 28.08600
12119 SI 12119 SI SI1 12119 1.100000 28.08600
12120 SI 12120 SI SI1 12120 1.100000 28.08600
12121 SI 12121 SI SI1 12121 1.100000 28.08600
12122 SI 12122 SI SI1 12122 1.100000 28.08600
12123 SI 12123 SI SI1 12123 1.100000 28.08600
12124 SI 12124 SI SI1 12124 1.100000 28.08600
12125 SI 12125 SI SI1 12125 1.100000 28.08600
12126 SI 12126 SI SI1 12126 1.100000 28.08600
12127 SI 12127 SI SI1 12127 1.100000 28.08600
12128 SI 12128 SI SI1 12128 1.100000 28.08600
12129 SI 12129 SI SI1 12129 1.100000 28.08600
12130 SI 12130 SI SI1 12130 1.100000 28.08600
12131 SI 12131 SI SI1 12131 1.100000 28.08600
12132 SI 12132 SI SI1 12132 1.100000 28.08600
12133 SI 12133 SI SI1 12133 1.100000 28.08600
12134 SI 12134 SI SI1 12134 1.100000 28.08600
12135 SI 12135 SI SI1 12135 1.100000 28.08600
12136 SI 12136 SI SI1 12136 1.100000 28.08600
12137 SI 12137 SI SI1 12137 1.100000 28.08600
12138 SI 12138 SI SI1 12138 1.100000 28.08600
12139 SI 12139 SI SI1 12139 1.100000 28.08600
12140 SI 12140 SI SI1 12140 1.100000 28.08600
12141 SI 12141 SI SI1 12141 1.100000 28.08600
12142 SI 12142 SI SI1 12142 1.100000 28.08600
12143 SI 12143 SI SI1 12143 1.100000 28.08600
12144 SI 12144 SI SI1 12144 1.100000 28.08600
12145 SI 12145 SI SI1 12145 1.100000 28.08600
12146 SI 12146 SI SI1 12146 1.100000 28.08600
12147 SI 12147 SI SI1 12147 1.100000 28.08600
12148 SI 12148 SI SI1 12148 1.100000 28.08600
12149 SI 12149 SI SI1 12149 1.100000 28.08600
12150 SI 12150 SI SI1 12150 1.100000 28.08600
12151 SI 12151 SI SI1 12151 1.100000 28.08600
12152 SI 12152 SI SI1 12152 1.100000 28.08600
12153 SI 12153 SI SI1 12153 1.100000 28.08600
12154 SI 12154 SI SI1 12154 1.100000 28.08600
12155 SI 12155 SI SI1 12155 1.100000 28.08600
12156 SI 12156 SI SI1 12156 1.100000 28.08600
12157 SI 12157 SI SI1 12157 1.100000 28.08600
12158 SI 12158 SI SI1 12158 1.100000 28.08600
12159 SI 12159 SI SI1 12159 1.100000 28.08600
12160 SI 12160 SI SI1 12160 1.100000 28.08600
12161 SI 12161 SI SI1 12161 1.100000 28.08600
12162 SI 12162 SI SI1 12162 1.100000 28.08600
12163 SI 12163 SI SI1 12163 1.100000 28.08600
12164 SI 12164 SI SI1 12164 1.100000 28.08600
12165 SI 12165 SI SI1 12165 1.100000 28.08600
12166 SI 12166 SI SI1 12166 1.100000 28.08600
12167 SI 12167 SI SI1 12167 1.100000 28.08600
12168 SI 12168 SI SI1 12168 1.100000 28.08600
12169 SI 12169 SI SI1 12169 1.100000 28.08600
12170 SI 12170 SI SI1 12170 1.100000 28.08600
12171 SI 12171 SI SI1 12171 1.100000 28.08600
12172 SI 12172 SI SI1 12172 1.100000 28.08600
12173 SI 12173 SI SI1 12173 1.100000 28.08600
12174 SI 12174 SI SI1 12174 1.100000 28.08600
12175 SI 12175 SI SI1 12175 1.100000 28.08600
12176 SI 12176 SI SI1 12176 1.100000 28.08600
12177 SI 12177 SI SI1 12177 1.100000 28.08600
12178 SI 12178 SI SI1 12178 1.100000 28.08600
12179 SI 12179 SI SI1 12179 1.100000 28.08600
12180 SI 12180 SI SI1 12180 1.100000 28.08600
12181 SI 12181 SI SI1 12181 1.100000 28.08600
12182 SI 12182 SI SI1 12182 1.100000 28.08600
12183 SI 12183 SI SI1 12183 1.100000 28.08600
12184 SI 12184 SI SI1 12184 1.100000 28.08600
12185 SI 12185 SI SI1 12185 1.100000 28.08600
12186 SI 12186 SI SI1 12186 1.100000 28.08600
12187 SI 12187 SI SI1 12187 1.100000 28.08600
12188 SI 12188 SI SI1 12188 1.100000 28.08600
12189 SI 12189 SI SI1 12189 1.100000 28.08600
12190 SI 12190 SI SI1 12190 1.100000 28.08600
12191 SI 12191 SI SI1 12191 1.100000 28.08600
12192 SI 12192 SI SI1 12192 1.100000 28.08600
12193 SI 12193 SI SI1 12193 1.100000 28.08600
12194 SI 12194 SI SI1 12194 1.100000 28.08600
12195 SI 12195 SI SI1 12195 1.100000 28.08600
12196 SI 12196 SI SI1 12196 1.100000 28.08600
12197 SI 12197 SI SI1 12197 1.100000 28.08600
12198 SI 12198 SI SI1 12198 1.100000 28.08600
12199 SI 12199 SI SI1 12199 1.100000 28.08600
12200 SI 12200 SI SI1 12200 1.100000 28.08600
12201 SI 12201 SI SI1 12201 1.100000 28.08600
12202 SI 12202 SI SI1 12202 1.100000 28.08600
12203 SI 12203 SI SI1 12203 1.100000 28.08600
12204 SI 12204 SI SI1 12204 1.100000 28.08600
12205 SI 12205 SI SI1 12205 1.100000 28.08600
12206 SI 12206 SI SI1 12206 1.100000 28.08600
12207 SI 12207 SI SI1 12207 1.100000 28.08600
12208 SI 12208 SI SI1 12208 1.100000 28.08600
12209 SI 12209 SI SI1 12209 1.100000 28.08600
12210 SI 12210 SI SI1 12210 1.100000 28.08600
12211 SI 12211 SI SI1 12211 1.100000 28.08600
12212 SI 12212 SI SI1 12212 1.100000 28.08600
12213 SI 12213 SI SI1 12213 1.100000 28.08600
12214 SI 12214 SI SI1 12214 1.100000 28.08600
12215 SI 12215 SI SI1 12215 1.100000 28.08600
12216 SI 12216 SI SI1 12216 1.100000 28.08600
12217 SI 12217 SI SI1 12217 1.100000 28.08600
12218 SI 12218 SI SI1 12218 1.100000 28.08600
12219 SI 12219 SI SI1 12219 1.100000 28.08600
12220 SI 12220 SI SI1 12220 1.100000 28.08600
12221 SI 12221 SI SI1 12221 1.100000 28.08600
12222 SI 12222 SI SI1 12222 1.100000 28.08600
12223 SI 12223 SI SI1 12223 1.100000 28.08600
12224 SI 12224 SI SI1 12224 1.100000 28.08600
12225 SI 12225 SI SI1 12225 1.100000 28.08600
12226 SI 12226 SI SI1 12226 1.100000 28.08600
12227 SI 12227 SI SI1 12227 1.100000 28.08600
12228 SI 12228 SI SI1 12228 1.100000 28.08600
12229 SI 12229 SI SI1 12229 1.100000 28.08600
12230 SI 12230 SI SI1 12230 1.100000 28.08600
12231 SI 12231 SI SI1 12231 1.100000 28.08600
12232 SI 12232 SI SI1 12232 1.100000 28.08600
12233 SI 12233 SI SI1 12233 1.100000 28.08600
12234 SI 12234 SI SI1 12234 1.100000 28.08600
12235 SI 12235 SI SI1 12235 1.100000 28.08600
12236 SI 12236 SI SI1 12236 1.100000 28.08600
12237 SI 12237 SI SI1 12237 1.100000 28.08600
12238 SI 12238 SI SI1 12238 1.100000 28.08600
12239 SI 12239 SI SI1 12239 1.100000 28.08600
12240 SI 12240 SI SI1 12240 1.100000 28.08600
12241 SI 12241 SI SI1 12241 1.100000 28.08600
12242 SI 12242 SI SI1 12242 1.100000 28.08600
12243 SI 12243 SI SI1 12243 1.100000 28.08600
12244 SI 12244 SI SI1 12244 1.100000 28.08600
12245 SI 12245 SI SI1 12245 1.100000 28.08600
12246 SI 12246 SI SI1 12246 1.100000 28.08600
12247 SI 12247 SI SI1 12247 1.100000 28.08600
12248 SI 12248 SI SI1 12248 1.100000 28.08600
12249 SI 12249 SI SI1 12249 1.100000 28.08600
12250 SI 12250 SI SI1 12250 1.100000 28.08600
12251 SI 12251 SI SI1 12251 1.100000 28.08600
12252 SI 12252 SI SI1 12252 1.100000 28.08600
12253 SI 12253 SI SI1 12253 1.100000 28.08600
12254 SI 12254 SI SI1 12254 1.100000 28.08600
12255 SI 12255 SI SI1 12255 1.100000 28.08600
12256 SI 12256 SI SI1 12256 1.100000 28.08600
12257 SI 12257 SI SI1 12257 1.100000 28.08600
12258 SI 12258 SI SI1 12258 1.100000 28.08600
12259 SI 12259 SI SI1 12259 1.100000 28.08600
12260 SI 12260 SI SI1 12260 1.100000 28.08600
12261 SI 12261 SI SI1 12261 1.100000 28.08600
12262 SI 12262 SI SI1 12262 1.100000 28.08600
12263 SI 12263 SI SI1 12263 1.100000 28.08600
12264 SI 12264 SI SI1 12264 1.100000 28.08600
12265 SI 12265 SI SI1 12265 1.100000 28.08600
12266 SI 12266 SI SI1 12266 1.100000 28.08600
12267 SI 12267 SI SI1 12267 1.100000 28.08600
12268 SI 12268 SI SI1 12268 1.100000 28.08600
12269 SI 12269 SI SI1 12269 1.100000 28.08600
12270 SI 12270 SI SI1 12270 1.100000 28.08600
12271 SI 12271 SI SI1 12271 1.100000 28.08600
12272 SI 12272 SI SI1 12272 1.100000 28.08600
12273 SI 12273 SI SI1 12273 1.100000 28.08600
12274 SI 12274 SI SI1 12274 1.100000 28.08600
12275 SI 12275 SI SI1 12275 1.100000 28.08600
12276 SI 12276 SI SI1 12276 1.100000 28.08600
12277 SI 12277 SI SI1 12277 1.100000 28.08600
12278 SI 12278 SI SI1 12278 1.100000 28.08600
12279 SI 12279 SI SI1 12279 1.100000 28.08600
12280 SI 12280 SI SI1 12280 1.100000 28.08600
12281 SI 12281 SI SI1 12281 1.100000 28.08600
12282 SI 12282 SI SI1 12282 1.100000 28.08600
12283 SI 12283 SI SI1 12283 1.100000 28.08600
12284 SI 12284 SI SI1 12284 1.100000 28.08600
12285 SI 12285 SI SI1 12285 1.100000 28.08600
12286 SI 12286 SI SI1 12286 1.100000 28.08600
12287 SI 12287 SI SI1 12287 1.100000 28.08600
12288 SI 12288 SI SI1 12288 1.100000 28.08600
12289 SI 12289 SI SI1 12289 1.100000 28.08600
12290 SI 12290 SI SI1 12290 1.100000 28.08600
12291 SI 12291 SI SI1 12291 1.100000 28.08600
12292 SI 12292 SI SI1 12292 1.100000 28.08600
12293 SI 12293 SI SI1 12293 1.100000 28.08600
12294 SI 12294 SI SI1 12294 1.100000 28.08600
12295 SI 12295 SI SI1 12295 1.100000 28.08600
12296 SI 12296 SI SI1 12296 1.100000 28.08600
12297 SI 12297 SI SI1 12297 1.100000 28.08600
12298 SI 12298 SI SI1 12298 1.100000 28.08600
12299 SI 12299 SI SI1 12299 1.100000 28.08600
12300 SI 12300 SI SI1 12300 1.100000 28.08600
12301 SI 12301 SI SI1 12301 1.100000 28.08600
12302 SI 12302 SI SI1 12302 1.100000 28.08600
12303 SI 12303 SI SI1 12303 1.100000 28.08600
12304 SI 12304 SI SI1 12304 1.100000 28.08600
12305 SI 12305 SI SI1 12305 1.100000 28.08600
12306 SI 12306 SI SI1 12306 1.100000 28.08600
12307 SI 12307 SI SI1 12307 1.100000 28.08600
12308 SI 12308 SI SI1 12308 1.100000 28.08600
12309 SI 12309 SI SI1 12309 1.100000 28.08600
12310 SI 12310 SI SI1 12310 1.100000 28.08600
12311 SI 12311 SI SI1 12311 1.100000 28.08600
12312 SI 12312 SI SI1 12312 1.100000 28.08600
12313 SI 12313 SI SI1 12313 1.100000 28.08600
12314 SI 12314 SI SI1 12314 1.100000 28.08600
12315 SI 12315 SI SI1 12315 1.100000 28.08600
12316 SI 12316 SI SI1 12316 1.100000 28.08600
12317 SI 12317 SI SI1 12317 1.100000 28.08600
12318 SI 12318 SI SI1 12318 1.100000 28.08600
12319 SI 12319 SI SI1 12319 1.100000 28.08600
12320 SI 12320 SI SI1 12320 1.100000 28.08600
12321 SI 12321 SI SI1 12321 1.100000 28.08600
12322 SI 12322 SI SI1 12322 1.100000 28.08600
12323 SI 12323 SI SI1 12323 1.100000 28.08600
12324 SI 12324 SI SI1 12324 1.100000 28.08600
12325 SI 12325 SI SI1 12325 1.100000 28.08600
12326 SI 12326 SI SI1 12326 1.100000 28.08600
12327 SI 12327 SI SI1 12327 1.100000 28.08600
12328 SI 12328 SI SI1 12328 1.100000 28.08600
12329 SI 12329 SI SI1 12329 1.100000 28.08600
12330 SI 12330 SI SI1 12330 1.100000 28.08600
12331 SI 12331 SI SI1 12331 1.100000 28.08600
12332 SI 12332 SI SI1 12332 1.100000 28.08600
12333 SI 12333 SI SI1 12333 1.100000 28.08600
12334 SI 12334 SI SI1 12334 1.100000 28.08600
12335 SI 12335 SI SI1 12335 1.100000 28.08600
12336 SI 12336 SI SI1 12336 1.100000 28.08600
12337 SI 12337 SI SI1 12337 1.100000 28.08600
12338 SI 12338 SI SI1 12338 1.100000 28.08600
12339 SI 12339 SI SI1 12339 1.100000 28.08600
12340 SI 12340 SI SI1 12340 1.100000 28.08600
12341 SI 12341 SI SI1 12341 1.100000 28.08600
12342 SI 12342 SI SI1 12342 1.100000 28.08600
12343 SI 12343 SI SI1 12343 1.100000 28.08600
12344 SI 12344 SI SI1 12344 1.100000 28.08600
12345 SI 12345 SI SI1 12345 1.100000 28.08600
12346 SI 12346 SI SI1 12346 1.100000 28.08600
12347 SI 12347 SI SI1 12347 1.100000 28.08600
12348 SI 12348 SI SI1 12348 1.100000 28.08600
12349 SI 12349 SI SI1 12349 1.100000 28.08600
12350 SI 12350 SI SI1 12350 1.100000 28.08600
12351 SI 12351 SI SI1 12351 1.100000 28.08600
12352 SI 12352 SI SI1 12352 1.100000 28.08600
12353 SI 12353 SI SI1 12353 1.100000 28.08600
12354 SI 12354 SI SI1 12354 1.100000 28.08600
12355 SI 12355 SI SI1 12355 1.100000 28.08600
12356 SI 12356 SI SI1 12356 1.100000 28.08600
12357 SI 12357 SI SI1 12357 1.100000 28.08600
12358 SI 12358 SI SI1 12358 1.100000 28.08600
12359 SI 12359 SI SI1 12359 1.100000 28.08600
12360 SI 12360 SI SI1 12360 1.100000 28.08600
12361 SI 12361 SI SI1 12361 1.100000 28.08600
12362 SI 12362 SI SI1 12362 1.100000 28.08600
12363 SI 12363 SI SI1 12363 1.100000 28.08600
12364 SI 12364 SI SI1 12364 1.100000 28.08600
12365 SI 12365 SI SI1 12365 1.100000 28.08600
12366 SI 12366 SI SI1 12366 1.100000 28.08600
12367 SI 12367 SI SI1 12367 1.100000 28.08600
12368 SI 12368 SI SI1 12368 1.100000 28.08600
12369 SI 12369 SI SI1 12369 1.100000 28.08600
12370 SI 12370 SI SI1 12370 1.100000 28.08600
12371 SI 12371 SI SI1 12371 1.100000 28.08600
12372 SI 12372 SI SI1 12372 1.100000 28.08600
12373 SI 12373 SI SI1 12373 1.100000 28.08600
12374 SI 12374 SI SI1 12374 1.100000 28.08600
12375 SI 12375 SI SI1 12375 1.100000 28.08600
12376 SI 12376 SI SI1 12376 1.100000 28.08600
12377 SI 12377 SI SI1 12377 1.100000 28.08600
12378 SI 12378 SI SI1 12378 1.100000 28.08600
12379 SI 12379 SI SI1 12379 1.100000 28.08600
12380 SI 12380 SI SI1 12380 1.100000 28.08600
12381 SI 12381 SI SI1 12381 1.100000 28.08600
12382 SI 12382 SI SI1 12382 1.100000 28.08600
12383 SI 12383 SI SI1 12383 1.100000 28.08600
12384 SI 12384 SI SI1 12384 1.100000 28.08600
12385 SI 12385 SI SI1 12385 1.100000 28.08600
12386 SI 12386 SI SI1 12386 1.100000 28.08600
12387 SI 12387 SI SI1 12387 1.100000 28.08600
12388 SI 12388 SI SI1 12388 1.100000 28.08600
12389 SI 12389 SI SI1 12389 1.100000 28.08600
12390 SI 12390 SI SI1 12390 1.100000 28.08600
12391 SI 12391 SI SI1 12391 1.100000 28.08600
12392 SI 12392 SI SI1 12392 1.100000 28.08600
12393 SI 12393 SI SI1 12393 1.100000 28.08600
12394 SI 12394 SI SI1 12394 1.100000 28.08600
12395 SI 12395 SI SI1 12395 1.100000 28.08600
12396 SI 12396 SI SI1 12396 1.100000 28.08600
12397 SI 12397 SI SI1 12397 1.100000 28.08600
12398 SI 12398 SI SI1 12398 1.100000 28.08600
12399 SI 12399 SI SI1 12399 1.100000 28.08600
12400 SI 12400 SI SI1 12400 1.100000 28.08600
12401 SI 12401 SI SI1 12401 1.100000 28.08600
12402 SI 12402 SI SI1 12402 1.100000 28.08600
12403 SI 12403 SI SI1 12403 1.100000 28.08600
12404 SI 12404 SI SI1 12404 1.100000 28.08600
12405 SI 12405 SI SI1 12405 1.100000 28.08600
12406 SI 12406 SI SI1 12406 1.100000 28.08600
12407 SI 12407 SI SI1 12407 1.100000 28.08600
12408 SI 12408 SI SI1 12408 1.100000 28.08600
12409 SI 12409 SI SI1 12409 1.100000 28.08600
12410 SI 12410 SI SI1 12410 1.100000 28.08600
12411 SI 12411 SI SI1 12411 1.100000 28.08600
12412 SI 12412 SI SI1 12412 1.100000 28.08600
12413 SI 12413 SI SI1 12413 1.100000 28.08600
12414 SI 12414 SI SI1 12414 1.100000 28.08600
12415 SI 12415 SI SI1 12415 1.100000 28.08600
12416 SI 12416 SI SI1 12416 1.100000 28.08600
12417 SI 12417 SI SI1 12417 1.100000 28.08600
12418 SI 12418 SI SI1 12418 1.100000 28.08600
12419 SI 12419 SI SI1 12419 1.100000 28.08600
12420 SI 12420 SI SI1 12420 1.100000 28.08600
12421 SI 12421 SI SI1 12421 1.100000 28.08600
12422 SI 12422 SI SI1 12422 1.100000 28.08600
12423 SI 12423 SI SI1 12423 1.100000 28.08600
12424 SI 12424 SI SI1 12424 1.100000 28.08600
12425 SI 12425 SI SI1 12425 1.100000 28.08600
12426 SI 12426 SI SI1 12426 1.100000 28.08600
12427 SI 12427 SI SI1 12427 1.100000 28.08600
12428 SI 12428 SI SI1 12428 1.100000 28.08600
12429 SI 12429 SI SI1 12429 1.100000 28.08600
12430 SI 12430 SI SI1 12430 1.100000 28.08600
12431 SI 12431 SI SI1 12431 1.100000 28.08600
12432 SI 12432 SI SI1 12432 1.100000 28.08600
12433 SI 12433 SI SI1 12433 1.100000 28.08600
12434 SI 12434 SI SI1 12434 1.100000 28.08600
12435 SI 12435 SI SI1 12435 1.100000 28.08600
12436 SI 12436 SI SI1 12436 1.100000 28.08600
12437 SI 12437 SI SI1 12437 1.100000 28.08600
12438 SI 12438 SI SI1 12438 1.100000 28.08600
12439 SI 12439 SI SI1 12439 1.100000 28.08600
12440 SI 12440 SI SI1 12440 1.100000 28.08600
12441 SI 12441 SI SI1 12441 1.100000 28.08600
12442 SI 12442 SI SI1 12442 1.100000 28.08600
12443 SI 12443 SI SI1 12443 1.100000 28.08600
12444 SI 12444 SI SI1 12444 1.100000 28.08600
12445 SI 12445 SI SI1 12445 1.100000 28.08600
12446 SI 12446 SI SI1 12446 1.100000 28.08600
12447 SI 12447 SI SI1 12447 1.100000 28.08600
12448 SI 12448 SI SI1 12448 1.100000 28.08600
12449 SI 12449 SI SI1 12449 1.100000 28.08600
12450 SI 12450 SI SI1 12450 1.100000 28.08600
12451 SI 12451 SI SI1 12451 1.100000 28.08600
12452 SI 12452 SI SI1 12452 1.100000 28.08600
12453 SI 12453 SI SI1 12453 1.100000 28.08600
12454 SI 12454 SI SI1 12454 1.100000 28.08600
12455 SI 12455 SI SI1 12455 1.100000 28.08600
12456 SI 12456 SI SI1 12456 1.100000 28.08600
12457 SI 12457 SI SI1 12457 1.100000 28.08600
12458 SI 12458 SI SI1 12458 1.100000 28.08600
12459 SI 12459 SI SI1 12459 1.100000 28.08600
12460 SI 12460 SI SI1 12460 1.100000 28.08600
12461 SI 12461 SI SI1 12461 1.100000 28.08600
12462 SI 12462 SI SI1 12462 1.100000 28.08600
12463 SI 12463 SI SI1 12463 1.100000 28.08600
12464 SI 12464 SI SI1 12464 1.100000 28.08600
12465 SI 12465 SI SI1 12465 1.100000 28.08600
12466 SI 12466 SI SI1 12466 1.100000 28.08600
12467 SI 12467 SI SI1 12467 1.100000 28.08600
12468 SI 12468 SI SI1 12468 1.100000 28.08600
12469 SI 12469 SI SI1 12469 1.100000 28.08600
12470 SI 12470 SI SI1 12470 1.100000 28.08600
12471 SI 12471 SI SI1 12471 1.100000 28.08600
12472 SI 12472 SI SI1 12472 1.100000 28.08600
12473 SI 12473 SI SI1 12473 1.100000 28.08600
12474 SI 12474 SI SI1 12474 1.100000 28.08600
12475 SI 12475 SI SI1 12475 1.100000 28.08600
12476 SI 12476 SI SI1 12476 1.100000 28.08600
12477 SI 12477 SI SI1 12477 1.100000 28.08600
12478 SI 12478 SI SI1 12478 1.100000 28.08600
12479 SI 12479 SI SI1 12479 1.100000 28.08600
12480 SI 12480 SI SI1 12480 1.100000 28.08600
12481 SI 12481 SI SI1 12481 1.100000 28.08600
12482 SI 12482 SI SI1 12482 1.100000 28.08600
12483 SI 12483 SI SI1 12483 1.100000 28.08600
12484 SI 12484 SI SI1 12484 1.100000 28.08600
12485 SI 12485 SI SI1 12485 1.100000 28.08600
12486 SI 12486 SI SI1 12486 1.100000 28.08600
12487 SI 12487 SI SI1 12487 1.100000 28.08600
12488 SI 12488 SI SI1 12488 1.100000 28.08600
12489 SI 12489 SI SI1 12489 1.100000 28.08600
12490 SI 12490 SI SI1 12490 1.100000 28.08600
12491 SI 12491 SI SI1 12491 1.100000 28.08600
12492 SI 12492 SI SI1 12492 1.100000 28.08600
12493 SI 12493 SI SI1 12493 1.100000 28.08600
12494 SI 12494 SI SI1 12494 1.100000 28.08600
12495 SI 12495 SI SI1 12495 1.100000 28.08600
12496 SI 12496 SI SI1 12496 1.100000 28.08600
12497 SI 12497 SI SI1 12497 1.100000 28.08600
12498 SI 12498 SI SI1 12498 1.100000 28.08600
12499 SI 12499 SI SI1 12499 1.100000 28.08600
12500 SI 12500 SI SI1 12500 1.100000 28.08600
12501 SI 12501 SI SI1 12501 1.100000 28.08600
12502 SI 12502 SI SI1 12502 1.100000 28.08600
12503 SI 12503 SI SI1 12503 1.100000 28.08600
12504 SI 12504 SI SI1 12504 1.100000 28.08600
12505 SI 12505 SI SI1 12505 1.100000 28.08600
12506 SI 12506 SI SI1 12506 1.100000 28.08600
12507 SI 12507 SI SI1 12507 1.100000 28.08600
12508 SI 12508 SI SI1 12508 1.100000 28.08600
12509 SI 12509 SI SI1 12509 1.100000 28.08600
12510 SI 12510 SI SI1 12510 1.100000 28.08600
12511 SI 12511 SI SI1 12511 1.100000 28.08600
12512 SI 12512 SI SI1 12512 1.100000 28.08600
12513 SI 12513 SI SI1 12513 1.100000 28.08600
12514 SI 12514 SI SI1 12514 1.100000 28.08600
12515 SI 12515 SI SI1 12515 1.100000 28.08600
12516 SI 12516 SI SI1 12516 1.100000 28.08600
12517 SI 12517 SI SI1 12517 1.100000 28.08600
12518 SI 12518 SI SI1 12518 1.100000 28.08600
12519 SI 12519 SI SI1 12519 1.100000 28.08600
12520 SI 12520 SI SI1 12520 1.100000 28.08600
12521 SI 12521 SI SI1 12521 1.100000 28.08600
12522 SI 12522 SI SI1 12522 1.100000 28.08600
12523 SI 12523 SI SI1 12523 1.100000 28.08600
12524 SI 12524 SI SI1 12524 1.100000 28.08600
12525 SI 12525 SI SI1 12525 1.100000 28.08600
12526 SI 12526 SI SI1 12526 1.100000 28.08600
12527 SI 12527 SI SI1 12527 1.100000 28.08600
12528 SI 12528 SI SI1 12528 1.100000 28.08600
12529 SI 12529 SI SI1 12529 1.100000 28.08600
12530 SI 12530 SI SI1 12530 1.100000 28.08600
12531 SI 12531 SI SI1 12531 1.100000 28.08600
12532 SI 12532 SI SI1 12532 1.100000 28.08600
12533 SI 12533 SI SI1 12533 1.100000 28.08600
12534 SI 12534 SI SI1 12534 1.100000 28.08600
12535 SI 12535 SI SI1 12535 1.100000 28.08600
12536 SI 12536 SI SI1 12536 1.100000 28.08600
12537 SI 12537 SI SI1 12537 1.100000 28.08600
12538 SI 12538 SI SI1 12538 1.100000 28.08600
12539 SI 12539 SI SI1 12539 1.100000 28.08600
12540 SI 12540 SI SI1 12540 1.100000 28.08600
12541 SI 12541 SI SI1 12541 1.100000 28.08600
12542 SI 12542 SI SI1 12542 1.100000 28.08600
12543 SI 12543 SI SI1 12543 1.100000 28.08600
12544 SI 12544 SI SI1 12544 1.100000 28.08600
12545 SI 12545 SI SI1 12545 1.100000 28.08600
12546 SI 12546 SI SI1 12546 1.100000 28.08600
12547 SI 12547 SI SI1 12547 1.100000 28.08600
12548 SI 12548 SI SI1 12548 1.100000 28.08600
12549 SI 12549 SI SI1 12549 1.100000 28.08600
12550 SI 12550 SI SI1 12550 1.100000 28.08600
12551 SI 12551 SI SI1 12551 1.100000 28.08600
12552 SI 12552 SI SI1 12552 1.100000 28.08600
12553 SI 12553 SI SI1 12553 1.100000 28.08600
12554 SI 12554 SI SI1 12554 1.100000 28.08600
12555 SI 12555 SI SI1 12555 1.100000 28.08600
12556 SI 12556 SI SI1 12556 1.100000 28.08600
12557 SI 12557 SI SI1 12557 1.100000 28.08600
12558 SI 12558 SI SI1 12558 1.100000 28.08600
12559 SI 12559 SI SI1 12559 1.100000 28.08600
12560 SI 12560 SI SI1 12560 1.100000 28.08600
12561 SI 12561 SI SI1 12561 1.100000 28.08600
12562 SI 12562 SI SI1 12562 1.100000 28.08600
12563 SI 12563 SI SI1 12563 1.100000 28.08600
12564 SI 12564 SI SI1 12564 1.100000 28.08600
12565 SI 12565 SI SI1 12565 1.100000 28.08600
12566 SI 12566 SI SI1 12566 1.100000 28.08600
12567 SI 12567 SI SI1 12567 1.100000 28.08600
12568 SI 12568 SI SI1 12568 1.100000 28.08600
12569 SI 12569 SI SI1 12569 1.100000 28.08600
12570 SI 12570 SI SI1 12570 1.100000 28.08600
12571 SI 12571 SI SI1 12571 1.100000 28.08600
12572 SI 12572 SI SI1 12572 1.100000 28.08600
12573 SI 12573 SI SI1 12573 1.100000 28.08600
12574 SI 12574 SI SI1 12574 1.100000 28.08600
12575 SI 12575 SI SI1 12575 1.100000 28.08600
12576 SI 12576 SI SI1 12576 1.100000 28.08600
12577 SI 12577 SI SI1 12577 1.100000 28.08600
12578 SI 12578 SI SI1 12578 1.100000 28.08600
12579 SI 12579 SI SI1 12579 1.100000 28.08600
12580 SI 12580 SI SI1 12580 1.100000 28.08600
12581 SI 12581 SI SI1 12581 1.100000 28.08600
12582 SI 12582 SI SI1 12582 1.100000 28.08600
12583 SI 12583 SI SI1 12583 1.100000 28.08600
12584 SI 12584 SI SI1 12584 1.100000 28.08600
12585 SI 12585 SI SI1 12585 1.100000 28.08600
12586 SI 12586 SI SI1 12586 1.100000 28.08600
12587 SI 12587 SI SI1 12587 1.100000 28.08600
12588 SI 12588 SI SI1 12588 1.100000 28.08600
12589 SI 12589 SI SI1 12589 1.100000 28.08600
12590 SI 12590 SI SI1 12590 1.100000 28.08600
12591 SI 12591 SI SI1 12591 1.100000 28.08600
12592 SI 12592 SI SI1 12592 1.100000 28.08600
12593 SI 12593 SI SI1 12593 1.100000 28.08600
12594 SI 12594 SI SI1 12594 1.100000 28.08600
12595 SI 12595 SI SI1 12595 1.100000 28.08600
12596 SI 12596 SI SI1 12596 1.100000 28.08600
12597 SI 12597 SI SI1 12597 1.100000 28.08600
12598 SI 12598 SI SI1 12598 1.100000 28.08600
12599 SI 12599 SI SI1 12599 1.100000 28.08600
12600 SI 12600 SI SI1 12600 1.100000 28.08600
12601 SI 12601 SI SI1 12601 1.100000 28.08600
12602 SI 12602 SI SI1 12602 1.100000 28.08600
12603 SI 12603 SI SI1 12603 1.100000 28.08600
12604 SI 12604 SI SI1 12604 1.100000 28.08600
12605 SI 12605 SI SI1 12605 1.100000 28.08600
12606 SI 12606 SI SI1 12606 1.100000 28.08600
12607 SI 12607 SI SI1 12607 1.100000 28.08600
12608 SI 12608 SI SI1 12608 1.100000 28.08600
12609 SI 12609 SI SI1 12609 1.100000 28.08600
12610 SI 12610 SI SI1 12610 1.100000 28.08600
12611 SI 12611 SI SI1 12611 1.100000 28.08600
12612 SI 12612 SI SI1 12612 1.100000 28.08600
12613 SI 12613 SI SI1 12613 1.100000 28.08600
12614 SI 12614 SI SI1 12614 1.100000 28.08600
12615 SI 12615 SI SI1 12615 1.100000 28.08600
12616 SI 12616 SI SI1 12616 1.100000 28.08600
12617 SI 12617 SI SI1 12617 1.100000 28.08600
12618 SI 12618 SI SI1 12618 1.100000 28.08600
12619 SI 12619 SI SI1 12619 1.100000 28.08600
12620 SI 12620 SI SI1 12620 1.100000 28.08600
12621 SI 12621 SI SI1 12621 1.100000 28.08600
12622 SI 12622 SI SI1 12622 1.100000 28.08600
12623 SI 12623 SI SI1 12623 1.100000 28.08600
12624 SI 12624 SI SI1 12624 1.100000 28.08600
12625 SI 12625 SI SI1 12625 1.100000 28.08600
12626 SI 12626 SI SI1 12626 1.100000 28.08600
12627 SI 12627 SI SI1 12627 1.100000 28.08600
12628 SI 12628 SI SI1 12628 1.100000 28.08600
12629 SI 12629 SI SI1 12629 1.100000 28.08600
12630 SI 12630 SI SI1 12630 1.100000 28.08600
12631 SI 12631 SI SI1 12631 1.100000 28.08600
12632 SI 12632 SI SI1 12632 1.100000 28.08600
12633 SI 12633 SI SI1 12633 1.100000 28.08600
12634 SI 12634 SI SI1 12634 1.100000 28.08600
12635 SI 12635 SI SI1 12635 1.100000 28.08600
12636 SI 12636 SI SI1 12636 1.100000 28.08600
12637 SI 12637 SI SI1 12637 1.100000 28.08600
12638 SI 12638 SI SI1 12638 1.100000 28.08600
12639 SI 12639 SI SI1 12639 1.100000 28.08600
12640 SI 12640 SI SI1 12640 1.100000 28.08600
12641 SI 12641 SI SI1 12641 1.100000 28.08600
12642 SI 12642 SI SI1 12642 1.100000 28.08600
12643 SI 12643 SI SI1 12643 1.100000 28.08600
12644 SI 12644 SI SI1 12644 1.100000 28.08600
12645 SI 12645 SI SI1 12645 1.100000 28.08600
12646 SI 12646 SI SI1 12646 1.100000 28.08600
12647 SI 12647 SI SI1 12647 1.100000 28.08600
12648 SI 12648 SI SI1 12648 1.100000 28.08600
12649 SI 12649 SI SI1 12649 1.100000 28.08600
12650 SI 12650 SI SI1 12650 1.100000 28.08600
12651 SI 12651 SI SI1 12651 1.100000 28.08600
12652 SI 12652 SI SI1 12652 1.100000 28.08600
12653 SI 12653 SI SI1 12653 1.100000 28.08600
12654 SI 12654 SI SI1 12654 1.100000 28.08600
12655 SI 12655 SI SI1 12655 1.100000 28.08600
12656 SI 12656 SI SI1 12656 1.100000 28.08600
12657 SI 12657 SI SI1 12657 1.100000 28.08600
12658 SI 12658 SI SI1 12658 1.100000 28.08600
12659 SI 12659 SI SI1 12659 1.100000 28.08600
12660 SI 12660 SI SI1 12660 1.100000 28.08600
12661 SI 12661 SI SI1 12661 1.100000 28.08600
12662 SI 12662 SI SI1 12662 1.100000 28.08600
12663 SI 12663 SI SI1 12663 1.100000 28.08600
12664 SI 12664 SI SI1 12664 1.100000 28.08600
12665 SI 12665 SI SI1 12665 1.100000 28.08600
12666 SI 12666 SI SI1 12666 1.100000 28.08600
12667 SI 12667 SI SI1 12667 1.100000 28.08600
12668 SI 12668 SI SI1 12668 1.100000 28.08600
12669 SI 12669 SI SI1 12669 1.100000 28.08600
12670 SI 12670 SI SI1 12670 1.100000 28.08600
12671 SI 12671 SI SI1 12671 1.100000 28.08600
12672 SI 12672 SI SI1 12672 1.100000 28.08600
12673 SI 12673 SI SI1 12673 1.100000 28.08600
12674 SI 12674 SI SI1 12674 1.100000 28.08600
12675 SI 12675 SI SI1 12675 1.100000 28.08600
12676 SI 12676 SI SI1 12676 1.100000 28.08600
12677 SI 12677 SI SI1 12677 1.100000 28.08600
12678 SI 12678 SI SI1 12678 1.100000 28.08600
12679 SI 12679 SI SI1 12679 1.100000 28.08600
12680 SI 12680 SI SI1 12680 1.100000 28.08600
12681 SI 12681 SI SI1 12681 1.100000 28.08600
12682 SI 12682 SI SI1 12682 1.100000 28.08600
12683 SI 12683 SI SI1 12683 1.100000 28.08600
12684 SI 12684 SI SI1 12684 1.100000 28.08600
12685 SI 12685 SI SI1 12685 1.100000 28.08600
12686 SI 12686 SI SI1 12686 1.100000 28.08600
12687 SI 12687 SI SI1 12687 1.100000 28.08600
12688 SI 12688 SI SI1 12688 1.100000 28.08600
12689 SI 12689 SI SI1 12689 1.100000 28.08600
12690 SI 12690 SI SI1 12690 1.100000 28.08600
12691 SI 12691 SI SI1 12691 1.100000 28.08600
12692 SI 12692 SI SI1 12692 1.100000 28.08600
12693 SI 12693 SI SI1 12693 1.100000 28.08600
12694 SI 12694 SI SI1 12694 1.100000 28.08600
12695 SI 12695 SI SI1 12695 1.100000 28.08600
12696 SI 12696 SI SI1 12696 1.100000 28.08600
12697 SI 12697 SI SI1 12697 1.100000 28.08600
12698 SI 12698 SI SI1 12698 1.100000 28.08600
12699 SI 12699 SI SI1 12699 1.100000 28.08600
12700 SI 12700 SI SI1 12700 1.100000 28.08600
12701 SI 12701 SI SI1 12701 1.100000 28.08600
12702 SI 12702 SI SI1 12702 1.100000 28.08600
12703 SI 12703 SI SI1 12703 1.100000 28.08600
12704 SI 12704 SI SI1 12704 1.100000 28.08600
12705 SI 12705 SI SI1 12705 1.100000 28.08600
12706 SI 12706 SI SI1 12706 1.100000 28.08600
12707 SI 12707 SI SI1 12707 1.100000 28.08600
12708 SI 12708 SI SI1 12708 1.100000 28.08600
12709 SI 12709 SI SI1 12709 1.100000 28.08600
12710 SI 12710 SI SI1 12710 1.100000 28.08600
12711 SI 12711 SI SI1 12711 1.100000 28.08600
12712 SI 12712 SI SI1 12712 1.100000 28.08600
12713 SI 12713 SI SI1 12713 1.100000 28.08600
12714 SI 12714 SI SI1 12714 1.100000 28.08600
12715 SI 12715 SI SI1 12715 1.100000 28.08600
12716 SI 12716 SI SI1 12716 1.100000 28.08600
12717 SI 12717 SI SI1 12717 1.100000 28.08600
12718 SI 12718 SI SI1 12718 1.100000 28.08600
12719 SI 12719 SI SI1 12719 1.100000 28.08600
12720 SI 12720 SI SI1 12720 1.100000 28.08600
12721 SI 12721 SI SI1 12721 1.100000 28.08600
12722 SI 12722 SI SI1 12722 1.100000 28.08600
12723 SI 12723 SI SI1 12723 1.100000 28.08600
12724 SI 12724 SI SI1 12724 1.100000 28.08600
12725 SI 12725 SI SI1 12725 1.100000 28.08600
12726 SI 12726 SI SI1 12726 1.100000 28.08600
12727 SI 12727 SI SI1 12727 1.100000 28.08600
12728 SI 12728 SI SI1 12728 1.100000 28.08600
12729 SI 12729 SI SI1 12729 1.100000 28.08600
12730 SI 12730 SI SI1 12730 1.100000 28.08600
12731 SI 12731 SI SI1 12731 1.100000 28.08600
12732 SI 12732 SI SI1 12732 1.100000 28.08600
12733 SI 12733 SI SI1 12733 1.100000 28.08600
12734 SI 12734 SI SI1 12734 1.100000 28.08600
12735 SI 12735 SI SI1 12735 1.100000 28.08600
12736 SI 12736 SI SI1 12736 1.100000 28.08600
12737 SI 12737 SI SI1 12737 1.100000 28.08600
12738 SI 12738 SI SI1 12738 1.100000 28.08600
12739 SI 12739 SI SI1 12739 1.100000 28.08600
12740 SI 12740 SI SI1 12740 1.100000 28.08600
12741 SI 12741 SI SI1 12741 1.100000 28.08600
12742 SI 12742 SI SI1 12742 1.100000 28.08600
12743 SI 12743 SI SI1 12743 1.100000 28.08600
12744 SI 12744 SI SI1 12744 1.100000 28.08600
12745 SI 12745 SI SI1 12745 1.100000 28.08600
12746 SI 12746 SI SI1 12746 1.100000 28.08600
12747 SI 12747 SI SI1 12747 1.100000 28.08600
12748 SI 12748 SI SI1 12748 1.100000 28.08600
12749 SI 12749 SI SI1 12749 1.100000 28.08600
12750 SI 12750 SI SI1 12750 1.100000 28.08600
12751 SI 12751 SI SI1 12751 1.100000 28.08600
12752 SI 12752 SI SI1 12752 1.100000 28.08600
12753 SI 12753 SI SI1 12753 1.100000 28.08600
12754 SI 12754 SI SI1 12754 1.100000 28.08600
12755 SI 12755 SI SI1 12755 1.100000 28.08600
12756 SI 12756 SI SI1 12756 1.100000 28.08600
12757 SI 12757 SI SI1 12757 1.100000 28.08600
12758 SI 12758 SI SI1 12758 1.100000 28.08600
12759 SI 12759 SI SI1 12759 1.100000 28.08600
12760 SI 12760 SI SI1 12760 1.100000 28.08600
12761 SI 12761 SI SI1 12761 1.100000 28.08600
12762 SI 12762 SI SI1 12762 1.100000 28.08600
12763 SI 12763 SI SI1 12763 1.100000 28.08600
12764 SI 12764 SI SI1 12764 1.100000 28.08600
12765 SI 12765 SI SI1 12765 1.100000 28.08600
12766 SI 12766 SI SI1 12766 1.100000 28.08600
12767 SI 12767 SI SI1 12767 1.100000 28.08600
12768 SI 12768 SI SI1 12768 1.100000 28.08600
12769 SI 12769 SI SI1 12769 1.100000 28.08600
12770 SI 12770 SI SI1 12770 1.100000 28.08600
12771 SI 12771 SI SI1 12771 1.100000 28.08600
12772 SI 12772 SI SI1 12772 1.100000 28.08600
12773 SI 12773 SI SI1 12773 1.100000 28.08600
12774 SI 12774 SI SI1 12774 1.100000 28.08600
12775 SI 12775 SI SI1 12775 1.100000 28.08600
12776 SI 12776 SI SI1 12776 1.100000 28.08600
12777 SI 12777 SI SI1 12777 1.100000 28.08600
12778 SI 12778 SI SI1 12778 1.100000 28.08600
12779 SI 12779 SI SI1 12779 1.100000 28.08600
12780 SI 12780 SI SI1 12780 1.100000 28.08600
12781 SI 12781 SI SI1 12781 1.100000 28.08600
12782 SI 12782 SI SI1 12782 1.100000 28.08600
12783 SI 12783 SI SI1 12783 1.100000 28.08600
12784 SI 12784 SI SI1 12784 1.100000 28.08600
12785 SI 12785 SI SI1 12785 1.100000 28.08600
12786 SI 12786 SI SI1 12786 1.100000 28.08600
12787 SI 12787 SI SI1 12787 1.100000 28.08600
12788 SI 12788 SI SI1 12788 1.100000 28.08600
12789 SI 12789 SI SI1 12789 1.100000 28.08600
12790 SI 12790 SI SI1 12790 1.100000 28.08600
12791 SI 12791 SI SI1 12791 1.100000 28.08600
12792 SI 12792 SI SI1 12792 1.100000 28.08600
12793 SI 12793 SI SI1 12793 1.100000 28.08600
12794 SI 12794 SI SI1 12794 1.100000 28.08600
12795 SI 12795 SI SI1 12795 1.100000 28.08600
12796 SI 12796 SI SI1 12796 1.100000 28.08600
12797 SI 12797 SI SI1 12797 1.100000 28.08600
12798 SI 12798 SI SI1 12798 1.100000 28.08600
12799 SI 12799 SI SI1 12799 1.100000 28.08600
12800 SI 12800 SI SI1 12800 1.100000 28.08600
12801 SI 12801 SI SI1 12801 1.100000 28.08600
12802 SI 12802 SI SI1 12802 1.100000 28.08600
12803 SI 12803 SI SI1 12803 1.100000 28.08600
12804 SI 12804 SI SI1 12804 1.100000 28.08600
12805 SI 12805 SI SI1 12805 1.100000 28.08600
12806 SI 12806 SI SI1 12806 1.100000 28.08600
12807 SI 12807 SI SI1 12807 1.100000 28.08600
12808 SI 12808 SI SI1 12808 1.100000 28.08600
12809 SI 12809 SI SI1 12809 1.100000 28.08600
12810 SI 12810 SI SI1 12810 1.100000 28.08600
12811 SI 12811 SI SI1 12811 1.100000 28.08600
12812 SI 12812 SI SI1 12812 1.100000 28.08600
12813 SI 12813 SI SI1 12813 1.100000 28.08600
12814 SI 12814 SI SI1 12814 1.100000 28.08600
12815 SI 12815 SI SI1 12815 1.100000 28.08600
12816 SI 12816 SI SI1 12816 1.100000 28.08600
12817 SI 12817 SI SI1 12817 1.100000 28.08600
12818 SI 12818 SI SI1 12818 1.100000 28.08600
12819 SI 12819 SI SI1 12819 1.100000 28.08600
12820 SI 12820 SI SI1 12820 1.100000 28.08600
12821 SI 12821 SI SI1 12821 1.100000 28.08600
12822 SI 12822 SI SI1 12822 1.100000 28.08600
12823 SI 12823 SI SI1 12823 1.100000 28.08600
12824 SI 12824 SI SI1 12824 1.100000 28.08600
12825 SI 12825 SI SI1 12825 1.100000 28.08600
12826 SI 12826 SI SI1 12826 1.100000 28.08600
12827 SI 12827 SI SI1 12827 1.100000 28.08600
12828 SI 12828 SI SI1 12828 1.100000 28.08600
12829 SI 12829 SI SI1 12829 1.100000 28.08600
12830 SI 12830 SI SI1 12830 1.100000 28.08600
12831 SI 12831 SI SI1 12831 1.100000 28.08600
12832 SI 12832 SI SI1 12832 1.100000 28.08600
12833 SI 12833 SI SI1 12833 1.100000 28.08600
12834 SI 12834 SI SI1 12834 1.100000 28.08600
12835 SI 12835 SI SI1 12835 1.100000 28.08600
12836 SI 12836 SI SI1 12836 1.100000 28.08600
12837 SI 12837 SI SI1 12837 1.100000 28.08600
12838 SI 12838 SI SI1 12838 1.100000 28.08600
12839 SI 12839 SI SI1 12839 1.100000 28.08600
12840 SI 12840 SI SI1 12840 1.100000 28.08600
12841 SI 12841 SI SI1 12841 1.100000 28.08600
12842 SI 12842 SI SI1 12842 1.100000 28.08600
12843 SI 12843 SI SI1 12843 1.100000 28.08600
12844 SI 12844 SI SI1 12844 1.100000 28.08600
12845 SI 12845 SI SI1 12845 1.100000 28.08600
12846 SI 12846 SI SI1 12846 1.100000 28.08600
12847 SI 12847 SI SI1 12847 1.100000 28.08600
12848 SI 12848 SI SI1 12848 1.100000 28.08600
12849 SI 12849 SI SI1 12849 1.100000 28.08600
12850 SI 12850 SI SI1 12850 1.100000 28.08600
12851 SI 12851 SI SI1 12851 1.100000 28.08600
12852 SI 12852 SI SI1 12852 1.100000 28.08600
12853 SI 12853 SI SI1 12853 1.100000 28.08600
12854 SI 12854 SI SI1 12854 1.100000 28.08600
12855 SI 12855 SI SI1 12855 1.100000 28.08600
12856 SI 12856 SI SI1 12856 1.100000 28.08600
12857 SI 12857 SI SI1 12857 1.100000 28.08600
12858 SI 12858 SI SI1 12858 1.100000 28.08600
12859 SI 12859 SI SI1 12859 1.100000 28.08600
12860 SI 12860 SI SI1 12860 1.100000 28.08600
12861 SI 12861 SI SI1 12861 1.100000 28.08600
12862 SI 12862 SI SI1 12862 1.100000 28.08600
12863 SI 12863 SI SI1 12863 1.100000 28.08600
12864 SI 12864 SI SI1 12864 1.100000 28.08600
12865 SI 12865 SI SI1 12865 1.100000 28.08600
12866 SI 12866 SI SI1 12866 1.100000 28.08600
12867 SI 12867 SI SI1 12867 1.100000 28.08600
12868 SI 12868 SI SI1 12868 1.100000 28.08600
12869 SI 12869 SI SI1 12869 1.100000 28.08600
12870 SI 12870 SI SI1 12870 1.100000 28.08600
12871 SI 12871 SI SI1 12871 1.100000 28.08600
12872 SI 12872 SI SI1 12872 1.100000 28.08600
12873 SI 12873 SI SI1 12873 1.100000 28.08600
12874 SI 12874 SI SI1 12874 1.100000 28.08600
12875 SI 12875 SI SI1 12875 1.100000 28.08600
12876 SI 12876 SI SI1 12876 1.100000 28.08600
12877 SI 12877 SI SI1 12877 1.100000 28.08600
12878 SI 12878 SI SI1 12878 1.100000 28.08600
12879 SI 12879 SI SI1 12879 1.100000 28.08600
12880 SI 12880 SI SI1 12880 1.100000 28.08600
12881 SI 12881 SI SI1 12881 1.100000 28.08600
12882 SI 12882 SI SI1 12882 1.100000 28.08600
12883 SI 12883 SI SI1 12883 1.100000 28.08600
12884 SI 12884 SI SI1 12884 1.100000 28.08600
12885 SI 12885 SI SI1 12885 1.100000 28.08600
12886 SI 12886 SI SI1 12886 1.100000 28.08600
12887 SI 12887 SI SI1 12887 1.100000 28.08600
12888 SI 12888 SI SI1 12888 1.100000 28.08600
12889 SI 12889 SI SI1 12889 1.100000 28.08600
12890 SI 12890 SI SI1 12890 1.100000 28.08600
12891 SI 12891 SI SI1 12891 1.100000 28.08600
12892 SI 12892 SI SI1 12892 1.100000 28.08600
12893 SI 12893 SI SI1 12893 1.100000 28.08600
12894 SI 12894 SI SI1 12894 1.100000 28.08600
12895 SI 12895 SI SI1 12895 1.100000 28.08600
12896 SI 12896 SI SI1 12896 1.100000 28.08600
12897 SI 12897 SI SI1 12897 1.100000 28.08600
12898 SI 12898 SI SI1 12898 1.100000 28.08600
12899 SI 12899 SI SI1 12899 1.100000 28.08600
12900 SI 12900 SI SI1 12900 1.100000 28.08600
12901 SI 12901 SI SI1 12901 1.100000 28.08600
12902 SI 12902 SI SI1 12902 1.100000 28.08600
12903 SI 12903 SI SI1 12903 1.100000 28.08600
12904 SI 12904 SI SI1 12904 1.100000 28.08600
12905 SI 12905 SI SI1 12905 1.100000 28.08600
12906 SI 12906 SI SI1 12906 1.100000 28.08600
12907 SI 12907 SI SI1 12907 1.100000 28.08600
12908 SI 12908 SI SI1 12908 1.100000 28.08600
12909 SI 12909 SI SI1 12909 1.100000 28.08600
12910 SI 12910 SI SI1 12910 1.100000 28.08600
12911 SI 12911 SI SI1 12911 1.100000 28.08600
12912 SI 12912 SI SI1 12912 1.100000 28.08600
12913 SI 12913 SI SI1 12913 1.100000 28.08600
12914 SI 12914 SI SI1 12914 1.100000 28.08600
12915 SI 12915 SI SI1 12915 1.100000 28.08600
12916 SI 12916 SI SI1 12916 1.100000 28.08600
12917 SI 12917 SI SI1 12917 1.100000 28.08600
12918 SI 12918 SI SI1 12918 1.100000 28.08600
12919 SI 12919 SI SI1 12919 1.100000 28.08600
12920 SI 12920 SI SI1 12920 1.100000 28.08600
12921 SI 12921 SI SI1 12921 1.100000 28.08600
12922 SI 12922 SI SI1 12922 1.100000 28.08600
12923 SI 12923 SI SI1 12923 1.100000 28.08600
12924 SI 12924 SI SI1 12924 1.100000 28.08600
12925 SI 12925 SI SI1 12925 1.100000 28.08600
12926 SI 12926 SI SI1 12926 1.100000 28.08600
12927 SI 12927 SI SI1 12927 1.100000 28.08600
12928 SI 12928 SI SI1 12928 1.100000 28.08600
12929 SI 12929 SI SI1 12929 1.100000 28.08600
12930 SI 12930 SI SI1 12930 1.100000 28.08600
12931 SI 12931 SI SI1 12931 1.100000 28.08600
12932 SI 12932 SI SI1 12932 1.100000 28.08600
12933 SI 12933 SI SI1 12933 1.100000 28.08600
12934 SI 12934 SI SI1 12934 1.100000 28.08600
12935 SI 12935 SI SI1 12935 1.100000 28.08600
12936 SI 12936 SI SI1 12936 1.100000 28.08600
12937 SI 12937 SI SI1 12937 1.100000 28.08600
12938 SI 12938 SI SI1 12938 1.100000 28.08600
12939 SI 12939 SI SI1 12939 1.100000 28.08600
12940 SI 12940 SI SI1 12940 1.100000 28.08600
12941 SI 12941 SI SI1 12941 1.100000 28.08600
12942 SI 12942 SI SI1 12942 1.100000 28.08600
12943 SI 12943 SI SI1 12943 1.100000 28.08600
12944 SI 12944 SI SI1 12944 1.100000 28.08600
12945 SI 12945 SI SI1 12945 1.100000 28.08600
12946 SI 12946 SI SI1 12946 1.100000 28.08600
12947 SI 12947 SI SI1 12947 1.100000 28.08600
12948 SI 12948 SI SI1 12948 1.100000 28.08600
12949 SI 12949 SI SI1 12949 1.100000 28.08600
12950 SI 12950 SI SI1 12950 1.100000 28.08600
12951 SI 12951 SI SI1 12951 1.100000 28.08600
12952 SI 12952 SI SI1 12952 1.100000 28.08600
12953 SI 12953 SI SI1 12953 1.100000 28.08600
12954 SI 12954 SI SI1 12954 1.100000 28.08600
12955 SI 12955 SI SI1 12955 1.100000 28.08600
12956 SI 12956 SI SI1 12956 1.100000 28.08600
12957 SI 12957 SI SI1 12957 1.100000 28.08600
12958 SI 12958 SI SI1 12958 1.100000 28.08600
12959 SI 12959 SI SI1 12959 1.100000 28.08600
12960 SI 12960 SI SI1 12960 1.100000 28.08600
12961 SI 12961 SI SI1 12961 1.100000 28.08600
12962 SI 12962 SI SI1 12962 1.100000 28.08600
12963 SI 12963 SI SI1 12963 1.100000 28.08600
12964 SI 12964 SI SI1 12964 1.100000 28.08600
12965 SI 12965 SI SI1 12965 1.100000 28.08600
12966 SI 12966 SI SI1 12966 1.100000 28.08600
12967 SI 12967 SI SI1 12967 1.100000 28.08600
12968 SI 12968 SI SI1 12968 1.100000 28.08600
12969 SI 12969 SI SI1 12969 1.100000 28.08600
12970 SI 12970 SI SI1 12970 1.100000 28.08600
12971 SI 12971 SI SI1 12971 1.100000 28.08600
12972 SI 12972 SI SI1 12972 1.100000 28.08600
12973 SI 12973 SI SI1 12973 1.100000 28.08600
12974 SI 12974 SI SI1 12974 1.100000 28.08600
12975 SI 12975 SI SI1 12975 1.100000 28.08600
12976 SI 12976 SI SI1 12976 1.100000 28.08600
12977 SI 12977 SI SI1 12977 1.100000 28.08600
12978 SI 12978 SI SI1 12978 1.100000 28.08600
12979 SI 12979 SI SI1 12979 1.100000 28.08600
12980 SI 12980 SI SI1 12980 1.100000 28.08600
12981 SI 12981 SI SI1 12981 1.100000 28.08600
12982 SI 12982 SI SI1 12982 1.100000 28.08600
12983 SI 12983 SI SI1 12983 1.100000 28.08600
12984 SI 12984 SI SI1 12984 1.100000 28.08600
12985 SI 12985 SI SI1 12985 1.100000 28.08600
12986 SI 12986 SI SI1 12986 1.100000 28.08600
12987 SI 12987 SI SI1 12987 1.100000 28.08600
12988 SI 12988 SI SI1 12988 1.100000 28.08600
12989 SI 12989 SI SI1 12989 1.100000 28.08600
12990 SI 12990 SI SI1 12990 1.100000 28.08600
12991 SI 12991 SI SI1 12991 1.100000 28.08600
12992 SI 12992 SI SI1 12992 1.100000 28.08600
12993 SI 12993 SI SI1 12993 1.100000 28.08600
12994 SI 12994 SI SI1 12994 1.100000 28.08600
12995 SI 12995 SI SI1 12995 1.100000 28.08600
12996 SI 12996 SI SI1 12996 1.100000 28.08600
12997 SI 12997 SI SI1 12997 1.100000 28.08600
12998 SI 12998 SI SI1 12998 1.100000 28.08600
12999 SI 12999 SI SI1 12999 1.100000 28.08600
13000 SI 13000 SI SI1 13000 1.100000 28.08600
13001 SI 13001 SI SI1 13001 1.100000 28.08600
13002 SI 13002 SI SI1 13002 1.100000 28.08600
13003 SI 13003 SI SI1 13003 1.100000 28.08600
13004 SI 13004 SI SI1 13004 1.100000 28.08600
13005 SI 13005 SI SI1 13005 1.100000 28.08600
13006 SI 13006 SI SI1 13006 1.100000 28.08600
13007 SI 13007 SI SI1 13007 1.100000 28.08600
13008 SI 13008 SI SI1 13008 1.100000 28.08600
13009 SI 13009 SI SI1 13009 1.100000 28.08600
13010 SI 13010 SI SI1 13010 1.100000 28.08600
13011 SI 13011 SI SI1 13011 1.100000 28.08600
13012 SI 13012 SI SI1 13012 1.100000 28.08600
13013 SI 13013 SI SI1 13013 1.100000 28.08600
13014 SI 13014 SI SI1 13014 1.100000 28.08600
13015 SI 13015 SI SI1 13015 1.100000 28.08600
13016 SI 13016 SI SI1 13016 1.100000 28.08600
13017 SI 13017 SI SI1 13017 1.100000 28.08600
13018 SI 13018 SI SI1 13018 1.100000 28.08600
13019 SI 13019 SI SI1 13019 1.100000 28.08600
13020 SI 13020 SI SI1 13020 1.100000 28.08600
13021 SI 13021 SI SI1 13021 1.100000 28.08600
13022 SI 13022 SI SI1 13022 1.100000 28.08600
13023 SI 13023 SI SI1 13023 1.100000 28.08600
13024 SI 13024 SI SI1 13024 1.100000 28.08600
13025 SI 13025 SI SI1 13025 1.100000 28.08600
13026 SI 13026 SI SI1 13026 1.100000 28.08600
13027 SI 13027 SI SI1 13027 1.100000 28.08600
13028 SI 13028 SI SI1 13028 1.100000 28.08600
13029 SI 13029 SI SI1 13029 1.100000 28.08600
13030 SI 13030 SI SI1 13030 1.100000 28.08600
13031 SI 13031 SI SI1 13031 1.100000 28.08600
13032 SI 13032 SI SI1 13032 1.100000 28.08600
13033 SI 13033 SI SI1 13033 1.100000 28.08600
13034 SI 13034 SI SI1 13034 1.100000 28.08600
13035 SI 13035 SI SI1 13035 1.100000 28.08600
13036 SI 13036 SI SI1 13036 1.100000 28.08600
13037 SI 13037 SI SI1 13037 1.100000 28.08600
13038 SI 13038 SI SI1 13038 1.100000 28.08600
13039 SI 13039 SI SI1 13039 1.100000 28.08600
13040 SI 13040 SI SI1 13040 1.100000 28.08600
13041 SI 13041 SI SI1 13041 1.100000 28.08600
13042 SI 13042 SI SI1 13042 1.100000 28.08600
13043 SI 13043 SI SI1 13043 1.100000 28.08600
13044 SI 13044 SI SI1 13044 1.100000 28.08600
13045 SI 13045 SI SI1 13045 1.100000 28.08600
13046 SI 13046 SI SI1 13046 1.100000 28.08600
13047 SI 13047 SI SI1 13047 1.100000 28.08600
13048 SI 13048 SI SI1 13048 1.100000 28.08600
13049 SI 13049 SI SI1 13049 1.100000 28.08600
13050 SI 13050 SI SI1 13050 1.100000 28.08600
13051 SI 13051 SI SI1 13051 1.100000 28.08600
13052 SI 13052 SI SI1 13052 1.100000 28.08600
13053 SI 13053 SI SI1 13053 1.100000 28.08600
13054 SI 13054 SI SI1 13054 1.100000 28.08600
13055 SI 13055 SI SI1 13055 1.100000 28.08600
13056 SI 13056 SI SI1 13056 1.100000 28.08600
13057 SI 13057 SI SI1 13057 1.100000 28.08600
13058 SI 13058 SI SI1 13058 1.100000 28.08600
13059 SI 13059 SI SI1 13059 1.100000 28.08600
13060 SI 13060 SI SI1 13060 1.100000 28.08600
13061 SI 13061 SI SI1 13061 1.100000 28.08600
13062 SI 13062 SI SI1 13062 1.100000 28.08600
13063 SI 13063 SI SI1 13063 1.100000 28.08600
13064 SI 13064 SI SI1 13064 1.100000 28.08600
13065 SI 13065 SI SI1 13065 1.100000 28.08600
13066 SI 13066 SI SI1 13066 1.100000 28.08600
13067 SI 13067 SI SI1 13067 1.100000 28.08600
13068 SI 13068 SI SI1 13068 1.100000 28.08600
13069 SI 13069 SI SI1 13069 1.100000 28.08600
13070 SI 13070 SI SI1 13070 1.100000 28.08600
13071 SI 13071 SI SI1 13071 1.100000 28.08600
13072 SI 13072 SI SI1 13072 1.100000 28.08600
13073 SI 13073 SI SI1 13073 1.100000 28.08600
13074 SI 13074 SI SI1 13074 1.100000 28.08600
13075 SI 13075 SI SI1 13075 1.100000 28.08600
13076 SI 13076 SI SI1 13076 1.100000 28.08600
13077 SI 13077 SI SI1 13077 1.100000 28.08600
13078 SI 13078 SI SI1 13078 1.100000 28.08600
13079 SI 13079 SI SI1 13079 1.100000 28.08600
13080 SI 13080 SI SI1 13080 1.100000 28.08600
13081 SI 13081 SI SI1 13081 1.100000 28.08600
13082 SI 13082 SI SI1 13082 1.100000 28.08600
13083 SI 13083 SI SI1 13083 1.100000 28.08600
13084 SI 13084 SI SI1 13084 1.100000 28.08600
13085 SI 13085 SI SI1 13085 1.100000 28.08600
13086 SI 13086 SI SI1 13086 1.100000 28.08600
13087 SI 13087 SI SI1 13087 1.100000 28.08600
13088 SI 13088 SI SI1 13088 1.100000 28.08600
13089 SI 13089 SI SI1 13089 1.100000 28.08600
13090 SI 13090 SI SI1 13090 1.100000 28.08600
13091 SI 13091 SI SI1 13091 1.100000 28.08600
13092 SI 13092 SI SI1 13092 1.100000 28.08600
13093 SI 13093 SI SI1 13093 1.100000 28.08600
13094 SI 13094 SI SI1 13094 1.100000 28.08600
13095 SI 13095 SI SI1 13095 1.100000 28.08600
13096 SI 13096 SI SI1 13096 1.100000 28.08600
13097 SI 13097 SI SI1 13097 1.100000 28.08600
13098 SI 13098 SI SI1 13098 1.100000 28.08600
13099 SI 13099 SI SI1 13099 1.100000 28.08600
13100 SI 13100 SI SI1 13100 1.100000 28.08600
13101 SI 13101 SI SI1 13101 1.100000 28.08600
13102 SI 13102 SI SI1 13102 1.100000 28.08600
13103 SI 13103 SI SI1 13103 1.100000 28.08600
13104 SI 13104 SI SI1 13104 1.100000 28.08600
13105 SI 13105 SI SI1 13105 1.100000 28.08600
13106 SI 13106 SI SI1 13106 1.100000 28.08600
13107 SI 13107 SI SI1 13107 1.100000 28.08600
13108 SI 13108 SI SI1 13108 1.100000 28.08600
13109 SI 13109 SI SI1 13109 1.100000 28.08600
13110 SI 13110 SI SI1 13110 1.100000 28.08600
13111 SI 13111 SI SI1 13111 1.100000 28.08600
13112 SI 13112 SI SI1 13112 1.100000 28.08600
13113 SI 13113 SI SI1 13113 1.100000 28.08600
13114 SI 13114 SI SI1 13114 1.100000 28.08600
13115 SI 13115 SI SI1 13115 1.100000 28.08600
13116 SI 13116 SI SI1 13116 1.100000 28.08600
13117 SI 13117 SI SI1 13117 1.100000 28.08600
13118 SI 13118 SI SI1 13118 1.100000 28.08600
13119 SI 13119 SI SI1 13119 1.100000 28.08600
13120 SI 13120 SI SI1 13120 1.100000 28.08600
13121 SI 13121 SI SI1 13121 1.100000 28.08600
13122 SI 13122 SI SI1 13122 1.100000 28.08600
13123 SI 13123 SI SI1 13123 1.100000 28.08600
13124 SI 13124 SI SI1 13124 1.100000 28.08600
13125 SI 13125 SI SI1 13125 1.100000 28.08600
13126 SI 13126 SI SI1 13126 1.100000 28.08600
13127 SI 13127 SI SI1 13127 1.100000 28.08600
13128 SI 13128 SI SI1 13128 1.100000 28.08600
13129 SI 13129 SI SI1 13129 1.100000 28.08600
13130 SI 13130 SI SI1 13130 1.100000 28.08600
13131 SI 13131 SI SI1 13131 1.100000 28.08600
13132 SI 13132 SI SI1 13132 1.100000 28.08600
13133 SI 13133 SI SI1 13133 1.100000 28.08600
13134 SI 13134 SI SI1 13134 1.100000 28.08600
13135 SI 13135 SI SI1 13135 1.100000 28.08600
13136 SI 13136 SI SI1 13136 1.100000 28.08600
13137 SI 13137 SI SI1 13137 1.100000 28.08600
13138 SI 13138 SI SI1 13138 1.100000 28.08600
13139 SI 13139 SI SI1 13139 1.100000 28.08600
13140 SI 13140 SI SI1 13140 1.100000 28.08600
13141 SI 13141 SI SI1 13141 1.100000 28.08600
13142 SI 13142 SI SI1 13142 1.100000 28.08600
13143 SI 13143 SI SI1 13143 1.100000 28.08600
13144 SI 13144 SI SI1 13144 1.100000 28.08600
13145 SI 13145 SI SI1 13145 1.100000 28.08600
13146 SI 13146 SI SI1 13146 1.100000 28.08600
13147 SI 13147 SI SI1 13147 1.100000 28.08600
13148 SI 13148 SI SI1 13148 1.100000 28.08600
13149 SI 13149 SI SI1 13149 1.100000 28.08600
13150 SI 13150 SI SI1 13150 1.100000 28.08600
13151 SI 13151 SI SI1 13151 1.100000 28.08600
13152 SI 13152 SI SI1 13152 1.100000 28.08600
13153 SI 13153 SI SI1 13153 1.100000 28.08600
13154 SI 13154 SI SI1 13154 1.100000 28.08600
13155 SI 13155 SI SI1 13155 1.100000 28.08600
13156 SI 13156 SI SI1 13156 1.100000 28.08600
13157 SI 13157 SI SI1 13157 1.100000 28.08600
13158 SI 13158 SI SI1 13158 1.100000 28.08600
13159 SI 13159 SI SI1 13159 1.100000 28.08600
13160 SI 13160 SI SI1 13160 1.100000 28.08600
13161 SI 13161 SI SI1 13161 1.100000 28.08600
13162 SI 13162 SI SI1 13162 1.100000 28.08600
13163 SI 13163 SI SI1 13163 1.100000 28.08600
13164 SI 13164 SI SI1 13164 1.100000 28.08600
13165 SI 13165 SI SI1 13165 1.100000 28.08600
13166 SI 13166 SI SI1 13166 1.100000 28.08600
13167 SI 13167 SI SI1 13167 1.100000 28.08600
13168 SI 13168 SI SI1 13168 1.100000 28.08600
13169 SI 13169 SI SI1 13169 1.100000 28.08600
13170 SI 13170 SI SI1 13170 1.100000 28.08600
13171 SI 13171 SI SI1 13171 1.100000 28.08600
13172 SI 13172 SI SI1 13172 1.100000 28.08600
13173 SI 13173 SI SI1 13173 1.100000 28.08600
13174 SI 13174 SI SI1 13174 1.100000 28.08600
13175 SI 13175 SI SI1 13175 1.100000 28.08600
13176 SI 13176 SI SI1 13176 1.100000 28.08600
13177 SI 13177 SI SI1 13177 1.100000 28.08600
13178 SI 13178 SI SI1 13178 1.100000 28.08600
13179 SI 13179 SI SI1 13179 1.100000 28.08600
13180 SI 13180 SI SI1 13180 1.100000 28.08600
13181 SI 13181 SI SI1 13181 1.100000 28.08600
13182 SI 13182 SI SI1 13182 1.100000 28.08600
13183 SI 13183 SI SI1 13183 1.100000 28.08600
13184 SI 13184 SI SI1 13184 1.100000 28.08600
13185 SI 13185 SI SI1 13185 1.100000 28.08600
13186 SI 13186 SI SI1 13186 1.100000 28.08600
13187 SI 13187 SI SI1 13187 1.100000 28.08600
13188 SI 13188 SI SI1 13188 1.100000 28.08600
13189 SI 13189 SI SI1 13189 1.100000 28.08600
13190 SI 13190 SI SI1 13190 1.100000 28.08600
13191 SI 13191 SI SI1 13191 1.100000 28.08600
13192 SI 13192 SI SI1 13192 1.100000 28.08600
13193 SI 13193 SI SI1 13193 1.100000 28.08600
13194 SI 13194 SI SI1 13194 1.100000 28.08600
13195 SI 13195 SI SI1 13195 1.100000 28.08600
13196 SI 13196 SI SI1 13196 1.100000 28.08600
13197 SI 13197 SI SI1 13197 1.100000 28.08600
13198 SI 13198 SI SI1 13198 1.100000 28.08600
13199 SI 13199 SI SI1 13199 1.100000 28.08600
13200 SI 13200 SI SI1 13200 1.100000 28.08600
13201 SI 13201 SI SI1 13201 1.100000 28.08600
13202 SI 13202 SI SI1 13202 1.100000 28.08600
13203 SI 13203 SI SI1 13203 1.100000 28.08600
13204 SI 13204 SI SI1 13204 1.100000 28.08600
13205 SI 13205 SI SI1 13205 1.100000 28.08600
13206 SI 13206 SI SI1 13206 1.100000 28.08600
13207 SI 13207 SI SI1 13207 1.100000 28.08600
13208 SI 13208 SI SI1 13208 1.100000 28.08600
13209 SI 13209 SI SI1 13209 1.100000 28.08600
13210 SI 13210 SI SI1 13210 1.100000 28.08600
13211 SI 13211 SI SI1 13211 1.100000 28.08600
13212 SI 13212 SI SI1 13212 1.100000 28.08600
13213 SI 13213 SI SI1 13213 1.100000 28.08600
13214 SI 13214 SI SI1 13214 1.100000 28.08600
13215 SI 13215 SI SI1 13215 1.100000 28.08600
13216 SI 13216 SI SI1 13216 1.100000 28.08600
13217 SI 13217 SI SI1 13217 1.100000 28.08600
13218 SI 13218 SI SI1 13218 1.100000 28.08600
13219 SI 13219 SI SI1 13219 1.100000 28.08600
13220 SI 13220 SI SI1 13220 1.100000 28.08600
13221 SI 13221 SI SI1 13221 1.100000 28.08600
13222 SI 13222 SI SI1 13222 1.100000 28.08600
13223 SI 13223 SI SI1 13223 1.100000 28.08600
13224 SI 13224 SI SI1 13224 1.100000 28.08600
13225 SI 13225 SI SI1 13225 1.100000 28.08600
13226 SI 13226 SI SI1 13226 1.100000 28.08600
13227 SI 13227 SI SI1 13227 1.100000 28.08600
13228 SI 13228 SI SI1 13228 1.100000 28.08600
13229 SI 13229 SI SI1 13229 1.100000 28.08600
13230 SI 13230 SI SI1 13230 1.100000 28.08600
13231 SI 13231 SI SI1 13231 1.100000 28.08600
13232 SI 13232 SI SI1 13232 1.100000 28.08600
13233 SI 13233 SI SI1 13233 1.100000 28.08600
13234 SI 13234 SI SI1 13234 1.100000 28.08600
13235 SI 13235 SI SI1 13235 1.100000 28.08600
13236 SI 13236 SI SI1 13236 1.100000 28.08600
13237 SI 13237 SI SI1 13237 1.100000 28.08600
13238 SI 13238 SI SI1 13238 1.100000 28.08600
13239 SI 13239 SI SI1 13239 1.100000 28.08600
13240 SI 13240 SI SI1 13240 1.100000 28.08600
13241 SI 13241 SI SI1 13241 1.100000 28.08600
13242 SI 13242 SI SI1 13242 1.100000 28.08600
13243 SI 13243 SI SI1 13243 1.100000 28.08600
13244 SI 13244 SI SI1 13244 1.100000 28.08600
13245 SI 13245 SI SI1 13245 1.100000 28.08600
13246 SI 13246 SI SI1 13246 1.100000 28.08600
13247 SI 13247 SI SI1 13247 1.100000 28.08600
13248 SI 13248 SI SI1 13248 1.100000 28.08600
13249 SI 13249 SI SI1 13249 1.100000 28.08600
13250 SI 13250 SI SI1 13250 1.100000 28.08600
13251 SI 13251 SI SI1 13251 1.100000 28.08600
13252 SI 13252 SI SI1 13252 1.100000 28.08600
13253 SI 13253 SI SI1 13253 1.100000 28.08600
13254 SI 13254 SI SI1 13254 1.100000 28.08600
13255 SI 13255 SI SI1 13255 1.100000 28.08600
13256 SI 13256 SI SI1 13256 1.100000 28.08600
13257 SI 13257 SI SI1 13257 1.100000 28.08600
13258 SI 13258 SI SI1 13258 1.100000 28.08600
13259 SI 13259 SI SI1 13259 1.100000 28.08600
13260 SI 13260 SI SI1 13260 1.100000 28.08600
13261 SI 13261 SI SI1 13261 1.100000 28.08600
13262 SI 13262 SI SI1 13262 1.100000 28.08600
13263 SI 13263 SI SI1 13263 1.100000 28.08600
13264 SI 13264 SI SI1 13264 1.100000 28.08600
13265 SI 13265 SI SI1 13265 1.100000 28.08600
13266 SI 13266 SI SI1 13266 1.100000 28.08600
13267 SI 13267 SI SI1 13267 1.100000 28.08600
13268 SI 13268 SI SI1 13268 1.100000 28.08600
13269 SI 13269 SI SI1 13269 1.100000 28.08600
13270 SI 13270 SI SI1 13270 1.100000 28.08600
13271 SI 13271 SI SI1 13271 1.100000 28.08600
13272 SI 13272 SI SI1 13272 1.100000 28.08600
13273 SI 13273 SI SI1 13273 1.100000 28.08600
13274 SI 13274 SI SI1 13274 1.100000 28.08600
13275 SI 13275 SI SI1 13275 1.100000 28.08600
13276 SI 13276 SI SI1 13276 1.100000 28.08600
13277 SI 13277 SI SI1 13277 1.100000 28.08600
13278 SI 13278 SI SI1 13278 1.100000 28.08600
13279 SI 13279 SI SI1 13279 1.100000 28.08600
13280 SI 13280 SI SI1 13280 1.100000 28.08600
13281 SI 13281 SI SI1 13281 1.100000 28.08600
13282 SI 13282 SI SI1 13282 1.100000 28.08600
13283 SI 13283 SI SI1 13283 1.100000 28.08600
13284 SI 13284 SI SI1 13284 1.100000 28.08600
13285 SI 13285 SI SI1 13285 1.100000 28.08600
13286 SI 13286 SI SI1 13286 1.100000 28.08600
13287 SI 13287 SI SI1 13287 1.100000 28.08600
13288 SI 13288 SI SI1 13288 1.100000 28.08600
13289 SI 13289 SI SI1 13289 1.100000 28.08600
13290 SI 13290 SI SI1 13290 1.100000 28.08600
13291 SI 13291 SI SI1 13291 1.100000 28.08600
13292 SI 13292 SI SI1 13292 1.100000 28.08600
13293 SI 13293 SI SI1 13293 1.100000 28.08600
13294 SI 13294 SI SI1 13294 1.100000 28.08600
13295 SI 13295 SI SI1 13295 1.100000 28.08600
13296 SI 13296 SI SI1 13296 1.100000 28.08600
13297 SI 13297 SI SI1 13297 1.100000 28.08600
13298 SI 13298 SI SI1 13298 1.100000 28.08600
13299 SI 13299 SI SI1 13299 1.100000 28.08600
13300 SI 13300 SI SI1 13300 1.100000 28.08600
13301 SI 13301 SI SI1 13301 1.100000 28.08600
13302 SI 13302 SI SI1 13302 1.100000 28.08600
13303 SI 13303 SI SI1 13303 1.100000 28.08600
13304 SI 13304 SI SI1 13304 1.100000 28.08600
13305 SI 13305 SI SI1 13305 1.100000 28.08600
13306 SI 13306 SI SI1 13306 1.100000 28.08600
13307 SI 13307 SI SI1 13307 1.100000 28.08600
13308 SI 13308 SI SI1 13308 1.100000 28.08600
13309 SI 13309 SI SI1 13309 1.100000 28.08600
13310 SI 13310 SI SI1 13310 1.100000 28.08600
13311 SI 13311 SI SI1 13311 1.100000 28.08600
13312 SI 13312 SI SI1 13312 1.100000 28.08600
13313 SI 13313 SI SI1 13313 1.100000 28.08600
13314 SI 13314 SI SI1 13314 1.100000 28.08600
13315 SI 13315 SI SI1 13315 1.100000 28.08600
13316 SI 13316 SI SI1 13316 1.100000 28.08600
13317 SI 13317 SI SI1 13317 1.100000 28.08600
13318 SI 13318 SI SI1 13318 1.100000 28.08600
13319 SI 13319 SI SI1 13319 1.100000 28.08600
13320 SI 13320 SI SI1 13320 1.100000 28.08600
13321 SI 13321 SI SI1 13321 1.100000 28.08600
13322 SI 13322 SI SI1 13322 1.100000 28.08600
13323 SI 13323 SI SI1 13323 1.100000 28.08600
13324 SI 13324 SI SI1 13324 1.100000 28.08600
13325 SI 13325 SI SI1 13325 1.100000 28.08600
13326 SI 13326 SI SI1 13326 1.100000 28.08600
13327 SI 13327 SI SI1 13327 1.100000 28.08600
13328 SI 13328 SI SI1 13328 1.100000 28.08600
13329 SI 13329 SI SI1 13329 1.100000 28.08600
13330 SI 13330 SI SI1 13330 1.100000 28.08600
13331 SI 13331 SI SI1 13331 1.100000 28.08600
13332 SI 13332 SI SI1 13332 1.100000 28.08600
13333 SI 13333 SI SI1 13333 1.100000 28.08600
13334 SI 13334 SI SI1 13334 1.100000 28.08600
13335 SI 13335 SI SI1 13335 1.100000 28.08600
13336 SI 13336 SI SI1 13336 1.100000 28.08600
13337 SI 13337 SI SI1 13337 1.100000 28.08600
13338 SI 13338 SI SI1 13338 1.100000 28.08600
13339 SI 13339 SI SI1 13339 1.100000 28.08600
13340 SI 13340 SI SI1 13340 1.100000 28.08600
13341 SI 13341 SI SI1 13341 1.100000 28.08600
13342 SI 13342 SI SI1 13342 1.100000 28.08600
13343 SI 13343 SI SI1 13343 1.100000 28.08600
13344 SI 13344 SI SI1 13344 1.100000 28.08600
13345 SI 13345 SI SI1 13345 1.100000 28.08600
13346 SI 13346 SI SI1 13346 1.100000 28.08600
13347 SI 13347 SI SI1 13347 1.100000 28.08600
13348 SI 13348 SI SI1 13348 1.100000 28.08600
13349 SI 13349 SI SI1 13349 1.100000 28.08600
13350 SI 13350 SI SI1 13350 1.100000 28.08600
13351 SI 13351 SI SI1 13351 1.100000 28.08600
13352 SI 13352 SI SI1 13352 1.100000 28.08600
13353 SI 13353 SI SI1 13353 1.100000 28.08600
13354 SI 13354 SI SI1 13354 1.100000 28.08600
13355 SI 13355 SI SI1 13355 1.100000 28.08600
13356 SI 13356 SI SI1 13356 1.100000 28.08600
13357 SI 13357 SI SI1 13357 1.100000 28.08600
13358 SI 13358 SI SI1 13358 1.100000 28.08600
13359 SI 13359 SI SI1 13359 1.100000 28.08600
13360 SI 13360 SI SI1 13360 1.100000 28.08600
13361 SI 13361 SI SI1 13361 1.100000 28.08600
13362 SI 13362 SI SI1 13362 1.100000 28.08600
13363 SI 13363 SI SI1 13363 1.100000 28.08600
13364 SI 13364 SI SI1 13364 1.100000 28.08600
13365 SI 13365 SI SI1 13365 1.100000 28.08600
13366 SI 13366 SI SI1 13366 1.100000 28.08600
13367 SI 13367 SI SI1 13367 1.100000 28.08600
13368 SI 13368 SI SI1 13368 1.100000 28.08600
13369 SI 13369 SI SI1 13369 1.100000 28.08600
13370 SI 13370 SI SI1 13370 1.100000 28.08600
13371 SI 13371 SI SI1 13371 1.100000 28.08600
13372 SI 13372 SI SI1 13372 1.100000 28.08600
13373 SI 13373 SI SI1 13373 1.100000 28.08600
13374 SI 13374 SI SI1 13374 1.100000 28.08600
13375 SI 13375 SI SI1 13375 1.100000 28.08600
13376 SI 13376 SI SI1 13376 1.100000 28.08600
13377 SI 13377 SI SI1 13377 1.100000 28.08600
13378 SI 13378 SI SI1 13378 1.100000 28.08600
13379 SI 13379 SI SI1 13379 1.100000 28.08600
13380 SI 13380 SI SI1 13380 1.100000 28.08600
13381 SI 13381 SI SI1 13381 1.100000 28.08600
13382 SI 13382 SI SI1 13382 1.100000 28.08600
13383 SI 13383 SI SI1 13383 1.100000 28.08600
13384 SI 13384 SI SI1 13384 1.100000 28.08600
13385 SI 13385 SI SI1 13385 1.100000 28.08600
13386 SI 13386 SI SI1 13386 1.100000 28.08600
13387 SI 13387 SI SI1 13387 1.100000 28.08600
13388 SI 13388 SI SI1 13388 1.100000 28.08600
13389 SI 13389 SI SI1 13389 1.100000 28.08600
13390 SI 13390 SI SI1 13390 1.100000 28.08600
13391 SI 13391 SI SI1 13391 1.100000 28.08600
13392 SI 13392 SI SI1 13392 1.100000 28.08600
13393 SI 13393 SI SI1 13393 1.100000 28.08600
13394 SI 13394 SI SI1 13394 1.100000 28.08600
13395 SI 13395 SI SI1 13395 1.100000 28.08600
13396 SI 13396 SI SI1 13396 1.100000 28.08600
13397 SI 13397 SI SI1 13397 1.100000 28.08600
13398 SI 13398 SI SI1 13398 1.100000 28.08600
13399 SI 13399 SI SI1 13399 1.100000 28.08600
13400 SI 13400 SI SI1 13400 1.100000 28.08600
13401 SI 13401 SI SI1 13401 1.100000 28.08600
13402 SI 13402 SI SI1 13402 1.100000 28.08600
13403 SI 13403 SI SI1 13403 1.100000 28.08600
13404 SI 13404 SI SI1 13404 1.100000 28.08600
13405 SI 13405 SI SI1 13405 1.100000 28.08600
13406 SI 13406 SI SI1 13406 1.100000 28.08600
13407 SI 13407 SI SI1 13407 1.100000 28.08600
13408 SI 13408 SI SI1 13408 1.100000 28.08600
13409 SI 13409 SI SI1 13409 1.100000 28.08600
13410 SI 13410 SI SI1 13410 1.100000 28.08600
13411 SI 13411 SI SI1 13411 1.100000 28.08600
13412 SI 13412 SI SI1 13412 1.100000 28.08600
13413 SI 13413 SI SI1 13413 1.100000 28.08600
13414 SI 13414 SI SI1 13414 1.100000 28.08600
13415 SI 13415 SI SI1 13415 1.100000 28.08600
13416 SI 13416 SI SI1 13416 1.100000 28.08600
13417 SI 13417 SI SI1 13417 1.100000 28.08600
13418 SI 13418 SI SI1 13418 1.100000 28.08600
13419 SI 13419 SI SI1 13419 1.100000 28.08600
13420 SI 13420 SI SI1 13420 1.100000 28.08600
13421 SI 13421 SI SI1 13421 1.100000 28.08600
13422 SI 13422 SI SI1 13422 1.100000 28.08600
13423 SI 13423 SI SI1 13423 1.100000 28.08600
13424 SI 13424 SI SI1 13424 1.100000 28.08600
13425 SI 13425 SI SI1 13425 1.100000 28.08600
13426 SI 13426 SI SI1 13426 1.100000 28.08600
13427 SI 13427 SI SI1 13427 1.100000 28.08600
13428 SI 13428 SI SI1 13428 1.100000 28.08600
13429 SI 13429 SI SI1 13429 1.100000 28.08600
13430 SI 13430 SI SI1 13430 1.100000 28.08600
13431 SI 13431 SI SI1 13431 1.100000 28.08600
13432 SI 13432 SI SI1 13432 1.100000 28.08600
13433 SI 13433 SI SI1 13433 1.100000 28.08600
13434 SI 13434 SI SI1 13434 1.100000 28.08600
13435 SI 13435 SI SI1 13435 1.100000 28.08600
13436 SI 13436 SI SI1 13436 1.100000 28.08600
13437 SI 13437 SI SI1 13437 1.100000 28.08600
13438 SI 13438 SI SI1 13438 1.100000 28.08600
13439 SI 13439 SI SI1 13439 1.100000 28.08600
13440 SI 13440 SI SI1 13440 1.100000 28.08600
13441 SI 13441 SI SI1 13441 1.100000 28.08600
13442 SI 13442 SI SI1 13442 1.100000 28.08600
13443 SI 13443 SI SI1 13443 1.100000 28.08600
13444 SI 13444 SI SI1 13444 1.100000 28.08600
13445 SI 13445 SI SI1 13445 1.100000 28.08600
13446 SI 13446 SI SI1 13446 1.100000 28.08600
13447 SI 13447 SI SI1 13447 1.100000 28.08600
13448 SI 13448 SI SI1 13448 1.100000 28.08600
13449 SI 13449 SI SI1 13449 1.100000 28.08600
13450 SI 13450 SI SI1 13450 1.100000 28.08600
13451 SI 13451 SI SI1 13451 1.100000 28.08600
13452 SI 13452 SI SI1 13452 1.100000 28.08600
13453 SI 13453 SI SI1 13453 1.100000 28.08600
13454 SI 13454 SI SI1 13454 1.100000 28.08600
13455 SI 13455 SI SI1 13455 1.100000 28.08600
13456 SI 13456 SI SI1 13456 1.100000 28.08600
13457 SI 13457 SI SI1 13457 1.100000 28.08600
13458 SI 13458 SI SI1 13458 1.100000 28.08600
13459 SI 13459 SI SI1 13459 1.100000 28.08600
13460 SI 13460 SI SI1 13460 1.100000 28.08600
13461 SI 13461 SI SI1 13461 1.100000 28.08600
13462 SI 13462 SI SI1 13462 1.100000 28.08600
13463 SI 13463 SI SI1 13463 1.100000 28.08600
13464 SI 13464 SI SI1 13464 1.100000 28.08600
13465 SI 13465 SI SI1 13465 1.100000 28.08600
13466 SI 13466 SI SI1 13466 1.100000 28.08600
13467 SI 13467 SI SI1 13467 1.100000 28.08600
13468 SI 13468 SI SI1 13468 1.100000 28.08600
13469 SI 13469 SI SI1 13469 1.100000 28.08600
13470 SI 13470 SI SI1 13470 1.100000 28.08600
13471 SI 13471 SI SI1 13471 1.100000 28.08600
13472 SI 13472 SI SI1 13472 1.100000 28.08600
13473 SI 13473 SI SI1 13473 1.100000 28.08600
13474 SI 13474 SI SI1 13474 1.100000 28.08600
13475 SI 13475 SI SI1 13475 1.100000 28.08600
13476 SI 13476 SI SI1 13476 1.100000 28.08600
13477 SI 13477 SI SI1 13477 1.100000 28.08600
13478 SI 13478 SI SI1 13478 1.100000 28.08600
13479 SI 13479 SI SI1 13479 1.100000 28.08600
13480 SI 13480 SI SI1 13480 1.100000 28.08600
13481 SI 13481 SI SI1 13481 1.100000 28.08600
13482 SI 13482 SI SI1 13482 1.100000 28.08600
13483 SI 13483 SI SI1 13483 1.100000 28.08600
13484 SI 13484 SI SI1 13484 1.100000 28.08600
13485 SI 13485 SI SI1 13485 1.100000 28.08600
13486 SI 13486 SI SI1 13486 1.100000 28.08600
13487 SI 13487 SI SI1 13487 1.100000 28.08600
13488 SI 13488 SI SI1 13488 1.100000 28.08600
13489 SI 13489 SI SI1 13489 1.100000 28.08600
13490 SI 13490 SI SI1 13490 1.100000 28.08600
13491 SI 13491 SI SI1 13491 1.100000 28.08600
13492 SI 13492 SI SI1 13492 1.100000 28.08600
13493 SI 13493 SI SI1 13493 1.100000 28.08600
13494 SI 13494 SI SI1 13494 1.100000 28.08600
13495 SI 13495 SI SI1 13495 1.100000 28.08600
13496 SI 13496 SI SI1 13496 1.100000 28.08600
13497 SI 13497 SI SI1 13497 1.100000 28.08600
13498 SI 13498 SI SI1 13498 1.100000 28.08600
13499 SI 13499 SI SI1 13499 1.100000 28.08600
13500 SI 13500 SI SI1 13500 1.100000 28.08600
13501 SI 13501 SI SI1 13501 1.100000 28.08600
13502 SI 13502 SI SI1 13502 1.100000 28.08600
13503 SI 13503 SI SI1 13503 1.100000 28.08600
13504 SI 13504 SI SI1 13504 1.100000 28.08600
13505 SI 13505 SI SI1 13505 1.100000 28.08600
13506 SI 13506 SI SI1 13506 1.100000 28.08600
13507 SI 13507 SI SI1 13507 1.100000 28.08600
13508 SI 13508 SI SI1 13508 1.100000 28.08600
13509 SI 13509 SI SI1 13509 1.100000 28.08600
13510 SI 13510 SI SI1 13510 1.100000 28.08600
13511 SI 13511 SI SI1 13511 1.100000 28.08600
13512 SI 13512 SI SI1 13512 1.100000 28.08600
13513 SI 13513 SI SI1 13513 1.100000 28.08600
13514 SI 13514 SI SI1 13514 1.100000 28.08600
13515 SI 13515 SI SI1 13515 1.100000 28.08600
13516 SI 13516 SI SI1 13516 1.100000 28.08600
13517 SI 13517 SI SI1 13517 1.100000 28.08600
13518 SI 13518 SI SI1 13518 1.100000 28.08600
13519 SI 13519 SI SI1 13519 1.100000 28.08600
13520 SI 13520 SI SI1 13520 1.100000 28.08600
13521 SI 13521 SI SI1 13521 1.100000 28.08600
13522 SI 13522 SI SI1 13522 1.100000 28.08600
13523 SI 13523 SI SI1 13523 1.100000 28.08600
13524 SI 13524 SI SI1 13524 1.100000 28.08600
13525 SI 13525 SI SI1 13525 1.100000 28.08600
13526 SI 13526 SI SI1 13526 1.100000 28.08600
13527 SI 13527 SI SI1 13527 1.100000 28.08600
13528 SI 13528 SI SI1 13528 1.100000 28.08600
13529 SI 13529 SI SI1 13529 1.100000 28.08600
13530 SI 13530 SI SI1 13530 1.100000 28.08600
13531 SI 13531 SI SI1 13531 1.100000 28.08600
13532 SI 13532 SI SI1 13532 1.100000 28.08600
13533 SI 13533 SI SI1 13533 1.100000 28.08600
13534 SI 13534 SI SI1 13534 1.100000 28.08600
13535 SI 13535 SI SI1 13535 1.100000 28.08600
13536 SI 13536 SI SI1 13536 1.100000 28.08600
13537 SI 13537 SI SI1 13537 1.100000 28.08600
13538 SI 13538 SI SI1 13538 1.100000 28.08600
13539 SI 13539 SI SI1 13539 1.100000 28.08600
13540 SI 13540 SI SI1 13540 1.100000 28.08600
13541 SI 13541 SI SI1 13541 1.100000 28.08600
13542 SI 13542 SI SI1 13542 1.100000 28.08600
13543 SI 13543 SI SI1 13543 1.100000 28.08600
13544 SI 13544 SI SI1 13544 1.100000 28.08600
13545 SI 13545 SI SI1 13545 1.100000 28.08600
13546 SI 13546 SI SI1 13546 1.100000 28.08600
13547 SI 13547 SI SI1 13547 1.100000 28.08600
13548 SI 13548 SI SI1 13548 1.100000 28.08600
13549 SI 13549 SI SI1 13549 1.100000 28.08600
13550 SI 13550 SI SI1 13550 1.100000 28.08600
13551 SI 13551 SI SI1 13551 1.100000 28.08600
13552 SI 13552 SI SI1 13552 1.100000 28.08600
13553 SI 13553 SI SI1 13553 1.100000 28.08600
13554 SI 13554 SI SI1 13554 1.100000 28.08600
13555 SI 13555 SI SI1 13555 1.100000 28.08600
13556 SI 13556 SI SI1 13556 1.100000 28.08600
13557 SI 13557 SI SI1 13557 1.100000 28.08600
13558 SI 13558 SI SI1 13558 1.100000 28.08600
13559 SI 13559 SI SI1 13559 1.100000 28.08600
13560 SI 13560 SI SI1 13560 1.100000 28.08600
13561 SI 13561 SI SI1 13561 1.100000 28.08600
13562 SI 13562 SI SI1 13562 1.100000 28.08600
13563 SI 13563 SI SI1 13563 1.100000 28.08600
13564 SI 13564 SI SI1 13564 1.100000 28.08600
13565 SI 13565 SI SI1 13565 1.100000 28.08600
13566 SI 13566 SI SI1 13566 1.100000 28.08600
13567 SI 13567 SI SI1 13567 1.100000 28.08600
13568 SI 13568 SI SI1 13568 1.100000 28.08600
13569 SI 13569 SI SI1 13569 1.100000 28.08600
13570 SI 13570 SI SI1 13570 1.100000 28.08600
13571 SI 13571 SI SI1 13571 1.100000 28.08600
13572 SI 13572 SI SI1 13572 1.100000 28.08600
13573 SI 13573 SI SI1 13573 1.100000 28.08600
13574 SI 13574 SI SI1 13574 1.100000 28.08600
13575 SI 13575 SI SI1 13575 1.100000 28.08600
13576 SI 13576 SI SI1 13576 1.100000 28.08600
13577 SI 13577 SI SI1 13577 1.100000 28.08600
13578 SI 13578 SI SI1 13578 1.100000 28.08600
13579 SI 13579 SI SI1 13579 1.100000 28.08600
13580 SI 13580 SI SI1 13580 1.100000 28.08600
13581 SI 13581 SI SI1 13581 1.100000 28.08600
13582 SI 13582 SI SI1 13582 1.100000 28.08600
13583 SI 13583 SI SI1 13583 1.100000 28.08600
13584 SI 13584 SI SI1 13584 1.100000 28.08600
13585 SI 13585 SI SI1 13585 1.100000 28.08600
13586 SI 13586 SI SI1 13586 1.100000 28.08600
13587 SI 13587 SI SI1 13587 1.100000 28.08600
13588 SI 13588 SI SI1 13588 1.100000 28.08600
13589 SI 13589 SI SI1 13589 1.100000 28.08600
13590 SI 13590 SI SI1 13590 1.100000 28.08600
13591 SI 13591 SI SI1 13591 1.100000 28.08600
13592 SI 13592 SI SI1 13592 1.100000 28.08600
13593 SI 13593 SI SI1 13593 1.100000 28.08600
13594 SI 13594 SI SI1 13594 1.100000 28.08600
13595 SI 13595 SI SI1 13595 1.100000 28.08600
13596 SI 13596 SI SI1 13596 1.100000 28.08600
13597 SI 13597 SI SI1 13597 1.100000 28.08600
13598 SI 13598 SI SI1 13598 1.100000 28.08600
13599 SI 13599 SI SI1 13599 1.100000 28.08600
13600 SI 13600 SI SI1 13600 1.100000 28.08600
13601 SI 13601 SI SI1 13601 1.100000 28.08600
13602 SI 13602 SI SI1 13602 1.100000 28.08600
13603 SI 13603 SI SI1 13603 1.100000 28.08600
13604 SI 13604 SI SI1 13604 1.100000 28.08600
13605 SI 13605 SI SI1 13605 1.100000 28.08600
13606 SI 13606 SI SI1 13606 1.100000 28.08600
13607 SI 13607 SI SI1 13607 1.100000 28.08600
13608 SI 13608 SI SI1 13608 1.100000 28.08600
13609 SI 13609 SI SI1 13609 1.100000 28.08600
13610 SI 13610 SI SI1 13610 1.100000 28.08600
13611 SI 13611 SI SI1 13611 1.100000 28.08600
13612 SI 13612 SI SI1 13612 1.100000 28.08600
13613 SI 13613 SI SI1 13613 1.100000 28.08600
13614 SI 13614 SI SI1 13614 1.100000 28.08600
13615 SI 13615 SI SI1 13615 1.100000 28.08600
13616 SI 13616 SI SI1 13616 1.100000 28.08600
13617 SI 13617 SI SI1 13617 1.100000 28.08600
13618 SI 13618 SI SI1 13618 1.100000 28.08600
13619 SI 13619 SI SI1 13619 1.100000 28.08600
13620 SI 13620 SI SI1 13620 1.100000 28.08600
13621 SI 13621 SI SI1 13621 1.100000 28.08600
13622 SI 13622 SI SI1 13622 1.100000 28.08600
13623 SI 13623 SI SI1 13623 1.100000 28.08600
13624 SI 13624 SI SI1 13624 1.100000 28.08600
13625 SI 13625 SI SI1 13625 1.100000 28.08600
13626 SI 13626 SI SI1 13626 1.100000 28.08600
13627 SI 13627 SI SI1 13627 1.100000 28.08600
13628 SI 13628 SI SI1 13628 1.100000 28.08600
13629 SI 13629 SI SI1 13629 1.100000 28.08600
13630 SI 13630 SI SI1 13630 1.100000 28.08600
13631 SI 13631 SI SI1 13631 1.100000 28.08600
13632 SI 13632 SI SI1 13632 1.100000 28.08600
13633 SI 13633 SI SI1 13633 1.100000 28.08600
13634 SI 13634 SI SI1 13634 1.100000 28.08600
13635 SI 13635 SI SI1 13635 1.100000 28.08600
13636 SI 13636 SI SI1 13636 1.100000 28.08600
13637 SI 13637 SI SI1 13637 1.100000 28.08600
13638 SI 13638 SI SI1 13638 1.100000 28.08600
13639 SI 13639 SI SI1 13639 1.100000 28.08600
13640 SI 13640 SI SI1 13640 1.100000 28.08600
13641 SI 13641 SI SI1 13641 1.100000 28.08600
13642 SI 13642 SI SI1 13642 1.100000 28.08600
13643 SI 13643 SI SI1 13643 1.100000 28.08600
13644 SI 13644 SI SI1 13644 1.100000 28.08600
13645 SI 13645 SI SI1 13645 1.100000 28.08600
13646 SI 13646 SI SI1 13646 1.100000 28.08600
13647 SI 13647 SI SI1 13647 1.100000 28.08600
13648 SI 13648 SI SI1 13648 1.100000 28.08600
13649 SI 13649 SI SI1 13649 1.100000 28.08600
13650 SI 13650 SI SI1 13650 1.100000 28.08600
13651 SI 13651 SI SI1 13651 1.100000 28.08600
13652 SI 13652 SI SI1 13652 1.100000 28.08600
13653 SI 13653 SI SI1 13653 1.100000 28.08600
13654 SI 13654 SI SI1 13654 1.100000 28.08600
13655 SI 13655 SI SI1 13655 1.100000 28.08600
13656 SI 13656 SI SI1 13656 1.100000 28.08600
13657 SI 13657 SI SI1 13657 1.100000 28.08600
13658 SI 13658 SI SI1 13658 1.100000 28.08600
13659 SI 13659 SI SI1 13659 1.100000 28.08600
13660 SI 13660 SI SI1 13660 1.100000 28.08600
13661 SI 13661 SI SI1 13661 1.100000 28.08600
13662 SI 13662 SI SI1 13662 1.100000 28.08600
13663 SI 13663 SI SI1 13663 1.100000 28.08600
13664 SI 13664 SI SI1 13664 1.100000 28.08600
13665 SI 13665 SI SI1 13665 1.100000 28.08600
13666 SI 13666 SI SI1 13666 1.100000 28.08600
13667 SI 13667 SI SI1 13667 1.100000 28.08600
13668 SI 13668 SI SI1 13668 1.100000 28.08600
13669 SI 13669 SI SI1 13669 1.100000 28.08600
13670 SI 13670 SI SI1 13670 1.100000 28.08600
13671 SI 13671 SI SI1 13671 1.100000 28.08600
13672 SI 13672 SI SI1 13672 1.100000 28.08600
13673 SI 13673 SI SI1 13673 1.100000 28.08600
13674 SI 13674 SI SI1 13674 1.100000 28.08600
13675 SI 13675 SI SI1 13675 1.100000 28.08600
13676 SI 13676 SI SI1 13676 1.100000 28.08600
13677 SI 13677 SI SI1 13677 1.100000 28.08600
13678 SI 13678 SI SI1 13678 1.100000 28.08600
13679 SI 13679 SI SI1 13679 1.100000 28.08600
13680 SI 13680 SI SI1 13680 1.100000 28.08600
13681 SI 13681 SI SI1 13681 1.100000 28.08600
13682 SI 13682 SI SI1 13682 1.100000 28.08600
13683 SI 13683 SI SI1 13683 1.100000 28.08600
13684 SI 13684 SI SI1 13684 1.100000 28.08600
13685 SI 13685 SI SI1 13685 1.100000 28.08600
13686 SI 13686 SI SI1 13686 1.100000 28.08600
13687 SI 13687 SI SI1 13687 1.100000 28.08600
13688 SI 13688 SI SI1 13688 1.100000 28.08600
13689 SI 13689 SI SI1 13689 1.100000 28.08600
13690 SI 13690 SI SI1 13690 1.100000 28.08600
13691 SI 13691 SI SI1 13691 1.100000 28.08600
13692 SI 13692 SI SI1 13692 1.100000 28.08600
13693 SI 13693 SI SI1 13693 1.100000 28.08600
13694 SI 13694 SI SI1 13694 1.100000 28.08600
13695 SI 13695 SI SI1 13695 1.100000 28.08600
13696 SI 13696 SI SI1 13696 1.100000 28.08600
13697 SI 13697 SI SI1 13697 1.100000 28.08600
13698 SI 13698 SI SI1 13698 1.100000 28.08600
13699 SI 13699 SI SI1 13699 1.100000 28.08600
13700 SI 13700 SI SI1 13700 1.100000 28.08600
13701 SI 13701 SI SI1 13701 1.100000 28.08600
13702 SI 13702 SI SI1 13702 1.100000 28.08600
13703 SI 13703 SI SI1 13703 1.100000 28.08600
13704 SI 13704 SI SI1 13704 1.100000 28.08600
13705 SI 13705 SI SI1 13705 1.100000 28.08600
13706 SI 13706 SI SI1 13706 1.100000 28.08600
13707 SI 13707 SI SI1 13707 1.100000 28.08600
13708 SI 13708 SI SI1 13708 1.100000 28.08600
13709 SI 13709 SI SI1 13709 1.100000 28.08600
13710 SI 13710 SI SI1 13710 1.100000 28.08600
13711 SI 13711 SI SI1 13711 1.100000 28.08600
13712 SI 13712 SI SI1 13712 1.100000 28.08600
13713 SI 13713 SI SI1 13713 1.100000 28.08600
13714 SI 13714 SI SI1 13714 1.100000 28.08600
13715 SI 13715 SI SI1 13715 1.100000 28.08600
13716 SI 13716 SI SI1 13716 1.100000 28.08600
13717 SI 13717 SI SI1 13717 1.100000 28.08600
13718 SI 13718 SI SI1 13718 1.100000 28.08600
13719 SI 13719 SI SI1 13719 1.100000 28.08600
13720 SI 13720 SI SI1 13720 1.100000 28.08600
13721 SI 13721 SI SI1 13721 1.100000 28.08600
13722 SI 13722 SI SI1 13722 1.100000 28.08600
13723 SI 13723 SI SI1 13723 1.100000 28.08600
13724 SI 13724 SI SI1 13724 1.100000 28.08600
13725 SI 13725 SI SI1 13725 1.100000 28.08600
13726 SI 13726 SI SI1 13726 1.100000 28.08600
13727 SI 13727 SI SI1 13727 1.100000 28.08600
13728 SI 13728 SI SI1 13728 1.100000 28.08600
13729 SI 13729 SI SI1 13729 1.100000 28.08600
13730 SI 13730 SI SI1 13730 1.100000 28.08600
13731 SI 13731 SI SI1 13731 1.100000 28.08600
13732 SI 13732 SI SI1 13732 1.100000 28.08600
13733 SI 13733 SI SI1 13733 1.100000 28.08600
13734 SI 13734 SI SI1 13734 1.100000 28.08600
13735 SI 13735 SI SI1 13735 1.100000 28.08600
13736 SI 13736 SI SI1 13736 1.100000 28.08600
13737 SI 13737 SI SI1 13737 1.100000 28.08600
13738 SI 13738 SI SI1 13738 1.100000 28.08600
13739 SI 13739 SI SI1 13739 1.100000 28.08600
13740 SI 13740 SI SI1 13740 1.100000 28.08600
13741 SI 13741 SI SI1 13741 1.100000 28.08600
13742 SI 13742 SI SI1 13742 1.100000 28.08600
13743 SI 13743 SI SI1 13743 1.100000 28.08600
13744 SI 13744 SI SI1 13744 1.100000 28.08600
13745 SI 13745 SI SI1 13745 1.100000 28.08600
13746 SI 13746 SI SI1 13746 1.100000 28.08600
13747 SI 13747 SI SI1 13747 1.100000 28.08600
13748 SI 13748 SI SI1 13748 1.100000 28.08600
13749 SI 13749 SI SI1 13749 1.100000 28.08600
13750 SI 13750 SI SI1 13750 1.100000 28.08600
13751 SI 13751 SI SI1 13751 1.100000 28.08600
13752 SI 13752 SI SI1 13752 1.100000 28.08600
13753 SI 13753 SI SI1 13753 1.100000 28.08600
13754 SI 13754 SI SI1 13754 1.100000 28.08600
13755 SI 13755 SI SI1 13755 1.100000 28.08600
13756 SI 13756 SI SI1 13756 1.100000 28.08600
13757 SI 13757 SI SI1 13757 1.100000 28.08600
13758 SI 13758 SI SI1 13758 1.100000 28.08600
13759 SI 13759 SI SI1 13759 1.100000 28.08600
13760 SI 13760 SI SI1 13760 1.100000 28.08600
13761 SI 13761 SI SI1 13761 1.100000 28.08600
13762 SI 13762 SI SI1 13762 1.100000 28.08600
13763 SI 13763 SI SI1 13763 1.100000 28.08600
13764 SI 13764 SI SI1 13764 1.100000 28.08600
13765 SI 13765 SI SI1 13765 1.100000 28.08600
13766 SI 13766 SI SI1 13766 1.100000 28.08600
13767 SI 13767 SI SI1 13767 1.100000 28.08600
13768 SI 13768 SI SI1 13768 1.100000 28.08600
13769 SI 13769 SI SI1 13769 1.100000 28.08600
13770 SI 13770 SI SI1 13770 1.100000 28.08600
13771 SI 13771 SI SI1 13771 1.100000 28.08600
13772 SI 13772 SI SI1 13772 1.100000 28.08600
13773 SI 13773 SI SI1 13773 1.100000 28.08600
13774 SI 13774 SI SI1 13774 1.100000 28.08600
13775 SI 13775 SI SI1 13775 1.100000 28.08600
13776 SI 13776 SI SI1 13776 1.100000 28.08600
13777 SI 13777 SI SI1 13777 1.100000 28.08600
13778 SI 13778 SI SI1 13778 1.100000 28.08600
13779 SI 13779 SI SI1 13779 1.100000 28.08600
13780 SI 13780 SI SI1 13780 1.100000 28.08600
13781 SI 13781 SI SI1 13781 1.100000 28.08600
13782 SI 13782 SI SI1 13782 1.100000 28.08600
13783 SI 13783 SI SI1 13783 1.100000 28.08600
13784 SI 13784 SI SI1 13784 1.100000 28.08600
13785 SI 13785 SI SI1 13785 1.100000 28.08600
13786 SI 13786 SI SI1 13786 1.100000 28.08600
13787 SI 13787 SI SI1 13787 1.100000 28.08600
13788 SI 13788 SI SI1 13788 1.100000 28.08600
13789 SI 13789 SI SI1 13789 1.100000 28.08600
13790 SI 13790 SI SI1 13790 1.100000 28.08600
13791 SI 13791 SI SI1 13791 1.100000 28.08600
13792 SI 13792 SI SI1 13792 1.100000 28.08600
13793 SI 13793 SI SI1 13793 1.100000 28.08600
13794 SI 13794 SI SI1 13794 1.100000 28.08600
13795 SI 13795 SI SI1 13795 1.100000 28.08600
13796 SI 13796 SI SI1 13796 1.100000 28.08600
13797 SI 13797 SI SI1 13797 1.100000 28.08600
13798 SI 13798 SI SI1 13798 1.100000 28.08600
13799 SI 13799 SI SI1 13799 1.100000 28.08600
13800 SI 13800 SI SI1 13800 1.100000 28.08600
13801 SI 13801 SI SI1 13801 1.100000 28.08600
13802 SI 13802 SI SI1 13802 1.100000 28.08600
13803 SI 13803 SI SI1 13803 1.100000 28.08600
13804 SI 13804 SI SI1 13804 1.100000 28.08600
13805 SI 13805 SI SI1 13805 1.100000 28.08600
13806 SI 13806 SI SI1 13806 1.100000 28.08600
13807 SI 13807 SI SI1 13807 1.100000 28.08600
13808 SI 13808 SI SI1 13808 1.100000 28.08600
13809 SI 13809 SI SI1 13809 1.100000 28.08600
13810 SI 13810 SI SI1 13810 1.100000 28.08600
13811 SI 13811 SI SI1 13811 1.100000 28.08600
13812 SI 13812 SI SI1 13812 1.100000 28.08600
13813 SI 13813 SI SI1 13813 1.100000 28.08600
13814 SI 13814 SI SI1 13814 1.100000 28.08600
13815 SI 13815 SI SI1 13815 1.100000 28.08600
13816 SI 13816 SI SI1 13816 1.100000 28.08600
13817 SI 13817 SI SI1 13817 1.100000 28.08600
13818 SI 13818 SI SI1 13818 1.100000 28.08600
13819 SI 13819 SI SI1 13819 1.100000 28.08600
13820 SI 13820 SI SI1 13820 1.100000 28.08600
13821 SI 13821 SI SI1 13821 1.100000 28.08600
13822 SI 13822 SI SI1 13822 1.100000 28.08600
13823 SI 13823 SI SI1 13823 1.100000 28.08600
13824 SI 13824 SI SI1 13824 1.100000 28.08600
13825 SI 13825 SI SI1 13825 1.100000 28.08600
13826 SI 13826 SI SI1 13826 1.100000 28.08600
13827 SI 13827 SI SI1 13827 1.100000 28.08600
13828 SI 13828 SI SI1 13828 1.100000 28.08600
13829 SI 13829 SI SI1 13829 1.100000 28.08600
13830 SI 13830 SI SI1 13830 1.100000 28.08600
13831 SI 13831 SI SI1 13831 1.100000 28.08600
13832 SI 13832 SI SI1 13832 1.100000 28.08600
13833 SI 13833 SI SI1 13833 1.100000 28.08600
13834 SI 13834 SI SI1 13834 1.100000 28.08600
13835 SI 13835 SI SI1 13835 1.100000 28.08600
13836 SI 13836 SI SI1 13836 1.100000 28.08600
13837 SI 13837 SI SI1 13837 1.100000 28.08600
13838 SI 13838 SI SI1 13838 1.100000 28.08600
13839 SI 13839 SI SI1 13839 1.100000 28.08600
13840 SI 13840 SI SI1 13840 1.100000 28.08600
13841 SI 13841 SI SI1 13841 1.100000 28.08600
13842 SI 13842 SI SI1 13842 1.100000 28.08600
13843 SI 13843 SI SI1 13843 1.100000 28.08600
13844 SI 13844 SI SI1 13844 1.100000 28.08600
13845 SI 13845 SI SI1 13845 1.100000 28.08600
13846 SI 13846 SI SI1 13846 1.100000 28.08600
13847 SI 13847 SI SI1 13847 1.100000 28.08600
13848 SI 13848 SI SI1 13848 1.100000 28.08600
13849 SI 13849 SI SI1 13849 1.100000 28.08600
13850 SI 13850 SI SI1 13850 1.100000 28.08600
13851 SI 13851 SI SI1 13851 1.100000 28.08600
13852 SI 13852 SI SI1 13852 1.100000 28.08600
13853 SI 13853 SI SI1 13853 1.100000 28.08600
13854 SI 13854 SI SI1 13854 1.100000 28.08600
13855 SI 13855 SI SI1 13855 1.100000 28.08600
13856 SI 13856 SI SI1 13856 1.100000 28.08600
13857 SI 13857 SI SI1 13857 1.100000 28.08600
13858 SI 13858 SI SI1 13858 1.100000 28.08600
13859 SI 13859 SI SI1 13859 1.100000 28.08600
13860 SI 13860 SI SI1 13860 1.100000 28.08600
13861 SI 13861 SI SI1 13861 1.100000 28.08600
13862 SI 13862 SI SI1 13862 1.100000 28.08600
13863 SI 13863 SI SI1 13863 1.100000 28.08600
13864 SI 13864 SI SI1 13864 1.100000 28.08600
13865 SI 13865 SI SI1 13865 1.100000 28.08600
13866 SI 13866 SI SI1 13866 1.100000 28.08600
13867 SI 13867 SI SI1 13867 1.100000 28.08600
13868 SI 13868 SI SI1 13868 1.100000 28.08600
13869 SI 13869 SI SI1 13869 1.100000 28.08600
13870 SI 13870 SI SI1 13870 1.100000 28.08600
13871 SI 13871 SI SI1 13871 1.100000 28.08600
13872 SI 13872 SI SI1 13872 1.100000 28.08600
13873 SI 13873 SI SI1 13873 1.100000 28.08600
13874 SI 13874 SI SI1 13874 1.100000 28.08600
13875 SI 13875 SI SI1 13875 1.100000 28.08600
13876 SI 13876 SI SI1 13876 1.100000 28.08600
13877 SI 13877 SI SI1 13877 1.100000 28.08600
13878 SI 13878 SI SI1 13878 1.100000 28.08600
13879 SI 13879 SI SI1 13879 1.100000 28.08600
13880 SI 13880 SI SI1 13880 1.100000 28.08600
13881 SI 13881 SI SI1 13881 1.100000 28.08600
13882 SI 13882 SI SI1 13882 1.100000 28.08600
13883 SI 13883 SI SI1 13883 1.100000 28.08600
13884 SI 13884 SI SI1 13884 1.100000 28.08600
13885 SI 13885 SI SI1 13885 1.100000 28.08600
13886 SI 13886 SI SI1 13886 1.100000 28.08600
13887 SI 13887 SI SI1 13887 1.100000 28.08600
13888 SI 13888 SI SI1 13888 1.100000 28.08600
13889 SI 13889 SI SI1 13889 1.100000 28.08600
13890 SI 13890 SI SI1 13890 1.100000 28.08600
13891 SI 13891 SI SI1 13891 1.100000 28.08600
13892 SI 13892 SI SI1 13892 1.100000 28.08600
13893 SI 13893 SI SI1 13893 1.100000 28.08600
13894 SI 13894 SI SI1 13894 1.100000 28.08600
13895 SI 13895 SI SI1 13895 1.100000 28.08600
13896 SI 13896 SI SI1 13896 1.100000 28.08600
13897 SI 13897 SI SI1 13897 1.100000 28.08600
13898 SI 13898 SI SI1 13898 1.100000 28.08600
13899 SI 13899 SI SI1 13899 1.100000 28.08600
13900 SI 13900 SI SI1 13900 1.100000 28.08600
13901 SI 13901 SI SI1 13901 1.100000 28.08600
13902 SI 13902 SI SI1 13902 1.100000 28.08600
13903 SI 13903 SI SI1 13903 1.100000 28.08600
13904 SI 13904 SI SI1 13904 1.100000 28.08600
13905 SI 13905 SI SI1 13905 1.100000 28.08600
13906 SI 13906 SI SI1 13906 1.100000 28.08600
13907 SI 13907 SI SI1 13907 1.100000 28.08600
13908 SI 13908 SI SI1 13908 1.100000 28.08600
13909 SI 13909 SI SI1 13909 1.100000 28.08600
13910 SI 13910 SI SI1 13910 1.100000 28.08600
13911 SI 13911 SI SI1 13911 1.100000 28.08600
13912 SI 13912 SI SI1 13912 1.100000 28.08600
13913 SI 13913 SI SI1 13913 1.100000 28.08600
13914 SI 13914 SI SI1 13914 1.100000 28.08600
13915 SI 13915 SI SI1 13915 1.100000 28.08600
13916 SI 13916 SI SI1 13916 1.100000 28.08600
13917 SI 13917 SI SI1 13917 1.100000 28.08600
13918 SI 13918 SI SI1 13918 1.100000 28.08600
13919 SI 13919 SI SI1 13919 1.100000 28.08600
13920 SI 13920 SI SI1 13920 1.100000 28.08600
13921 SI 13921 SI SI1 13921 1.100000 28.08600
13922 SI 13922 SI SI1 13922 1.100000 28.08600
13923 SI 13923 SI SI1 13923 1.100000 28.08600
13924 SI 13924 SI SI1 13924 1.100000 28.08600
13925 SI 13925 SI SI1 13925 1.100000 28.08600
13926 SI 13926 SI SI1 13926 1.100000 28.08600
13927 SI 13927 SI SI1 13927 1.100000 28.08600
13928 SI 13928 SI SI1 13928 1.100000 28.08600
13929 SI 13929 SI SI1 13929 1.100000 28.08600
13930 SI 13930 SI SI1 13930 1.100000 28.08600
13931 SI 13931 SI SI1 13931 1.100000 28.08600
13932 SI 13932 SI SI1 13932 1.100000 28.08600
13933 SI 13933 SI SI1 13933 1.100000 28.08600
13934 SI 13934 SI SI1 13934 1.100000 28.08600
13935 SI 13935 SI SI1 13935 1.100000 28.08600
13936 SI 13936 SI SI1 13936 1.100000 28.08600
13937 SI 13937 SI SI1 13937 1.100000 28.08600
13938 SI 13938 SI SI1 13938 1.100000 28.08600
13939 SI 13939 SI SI1 13939 1.100000 28.08600
13940 SI 13940 SI SI1 13940 1.100000 28.08600
13941 SI 13941 SI SI1 13941 1.100000 28.08600
13942 SI 13942 SI SI1 13942 1.100000 28.08600
13943 SI 13943 SI SI1 13943 1.100000 28.08600
13944 SI 13944 SI SI1 13944 1.100000 28.08600
13945 SI 13945 SI SI1 13945 1.100000 28.08600
13946 SI 13946 SI SI1 13946 1.100000 28.08600
13947 SI 13947 SI SI1 13947 1.100000 28.08600
13948 SI 13948 SI SI1 13948 1.100000 28.08600
13949 SI 13949 SI SI1 13949 1.100000 28.08600
13950 SI 13950 SI SI1 13950 1.100000 28.08600
13951 SI 13951 SI SI1 13951 1.100000 28.08600
13952 SI 13952 SI SI1 13952 1.100000 28.08600
13953 SI 13953 SI SI1 13953 1.100000 28.08600
13954 SI 13954 SI SI1 13954 1.100000 28.08600
13955 SI 13955 SI SI1 13955 1.100000 28.08600
13956 SI 13956 SI SI1 13956 1.100000 28.08600
13957 SI 13957 SI SI1 13957 1.100000 28.08600
13958 SI 13958 SI SI1 13958 1.100000 28.08600
13959 SI 13959 SI SI1 13959 1.100000 28.08600
13960 SI 13960 SI SI1 13960 1.100000 28.08600
13961 SI 13961 SI SI1 13961 1.100000 28.08600
13962 SI 13962 SI SI1 13962 1.100000 28.08600
13963 SI 13963 SI SI1 13963 1.100000 28.08600
13964 SI 13964 SI SI1 13964 1.100000 28.08600
13965 SI 13965 SI SI1 13965 1.100000 28.08600
13966 SI 13966 SI SI1 13966 1.100000 28.08600
13967 SI 13967 SI SI1 13967 1.100000 28.08600
13968 SI 13968 SI SI1 13968 1.100000 28.08600
13969 SI 13969 SI SI1 13969 1.100000 28.08600
13970 SI 13970 SI SI1 13970 1.100000 28.08600
13971 SI 13971 SI SI1 13971 1.100000 28.08600
13972 SI 13972 SI SI1 13972 1.100000 28.08600
13973 SI 13973 SI SI1 13973 1.100000 28.08600
13974 SI 13974 SI SI1 13974 1.100000 28.08600
13975 SI 13975 SI SI1 13975 1.100000 28.08600
13976 SI 13976 SI SI1 13976 1.100000 28.08600
13977 SI 13977 SI SI1 13977 1.100000 28.08600
13978 SI 13978 SI SI1 13978 1.100000 28.08600
13979 SI 13979 SI SI1 13979 1.100000 28.08600
13980 SI 13980 SI SI1 13980 1.100000 28.08600
13981 SI 13981 SI SI1 13981 1.100000 28.08600
13982 SI 13982 SI SI1 13982 1.100000 28.08600
13983 SI 13983 SI SI1 13983 1.100000 28.08600
13984 SI 13984 SI SI1 13984 1.100000 28.08600
13985 SI 13985 SI SI1 13985 1.100000 28.08600
13986 SI 13986 SI SI1 13986 1.100000 28.08600
13987 SI 13987 SI SI1 13987 1.100000 28.08600
13988 SI 13988 SI SI1 13988 1.100000 28.08600
13989 SI 13989 SI SI1 13989 1.100000 28.08600
13990 SI 13990 SI SI1 13990 1.100000 28.08600
13991 SI 13991 SI SI1 13991 1.100000 28.08600
13992 SI 13992 SI SI1 13992 1.100000 28.08600
13993 SI 13993 SI SI1 13993 1.100000 28.08600
13994 SI 13994 SI SI1 13994 1.100000 28.08600
13995 SI 13995 SI SI1 13995 1.100000 28.08600
13996 SI 13996 SI SI1 13996 1.100000 28.08600
13997 SI 13997 SI SI1 13997 1.100000 28.08600
13998 SI 13998 SI SI1 13998 1.100000 28.08600
13999 SI 13999 SI SI1 13999 1.100000 28.08600
14000 SI 14000 SI SI1 14000 1.100000 28.08600
14001 SI 14001 SI SI1 14001 1.100000 28.08600
14002 SI 14002 SI SI1 14002 1.100000 28.08600
14003 SI 14003 SI SI1 14003 1.100000 28.08600
14004 SI 14004 SI SI1 14004 1.100000 28.08600
14005 SI 14005 SI SI1 14005 1.100000 28.08600
14006 SI 14006 SI SI1 14006 1.100000 28.08600
14007 SI 14007 SI SI1 14007 1.100000 28.08600
14008 SI 14008 SI SI1 14008 1.100000 28.08600
14009 SI 14009 SI SI1 14009 1.100000 28.08600
14010 SI 14010 SI SI1 14010 1.100000 28.08600
14011 SI 14011 SI SI1 14011 1.100000 28.08600
14012 SI 14012 SI SI1 14012 1.100000 28.08600
14013 SI 14013 SI SI1 14013 1.100000 28.08600
14014 SI 14014 SI SI1 14014 1.100000 28.08600
14015 SI 14015 SI SI1 14015 1.100000 28.08600
14016 SI 14016 SI SI1 14016 1.100000 28.08600
14017 SI 14017 SI SI1 14017 1.100000 28.08600
14018 SI 14018 SI SI1 14018 1.100000 28.08600
14019 SI 14019 SI SI1 14019 1.100000 28.08600
14020 SI 14020 SI SI1 14020 1.100000 28.08600
14021 SI 14021 SI SI1 14021 1.100000 28.08600
14022 SI 14022 SI SI1 14022 1.100000 28.08600
14023 SI 14023 SI SI1 14023 1.100000 28.08600
14024 SI 14024 SI SI1 14024 1.100000 28.08600
14025 SI 14025 SI SI1 14025 1.100000 28.08600
14026 SI 14026 SI SI1 14026 1.100000 28.08600
14027 SI 14027 SI SI1 14027 1.100000 28.08600
14028 SI 14028 SI SI1 14028 1.100000 28.08600
14029 SI 14029 SI SI1 14029 1.100000 28.08600
14030 SI 14030 SI SI1 14030 1.100000 28.08600
14031 SI 14031 SI SI1 14031 1.100000 28.08600
14032 SI 14032 SI SI1 14032 1.100000 28.08600
14033 SI 14033 SI SI1 14033 1.100000 28.08600
14034 SI 14034 SI SI1 14034 1.100000 28.08600
14035 SI 14035 SI SI1 14035 1.100000 28.08600
14036 SI 14036 SI SI1 14036 1.100000 28.08600
14037 SI 14037 SI SI1 14037 1.100000 28.08600
14038 SI 14038 SI SI1 14038 1.100000 28.08600
14039 SI 14039 SI SI1 14039 1.100000 28.08600
14040 SI 14040 SI SI1 14040 1.100000 28.08600
14041 SI 14041 SI SI1 14041 1.100000 28.08600
14042 SI 14042 SI SI1 14042 1.100000 28.08600
14043 SI 14043 SI SI1 14043 1.100000 28.08600
14044 SI 14044 SI SI1 14044 1.100000 28.08600
14045 SI 14045 SI SI1 14045 1.100000 28.08600
14046 SI 14046 SI SI1 14046 1.100000 28.08600
14047 SI 14047 SI SI1 14047 1.100000 28.08600
14048 SI 14048 SI SI1 14048 1.100000 28.08600
14049 SI 14049 SI SI1 14049 1.100000 28.08600
14050 SI 14050 SI SI1 14050 1.100000 28.08600
14051 SI 14051 SI SI1 14051 1.100000 28.08600
14052 SI 14052 SI SI1 14052 1.100000 28.08600
14053 SI 14053 SI SI1 14053 1.100000 28.08600
14054 SI 14054 SI SI1 14054 1.100000 28.08600
14055 SI 14055 SI SI1 14055 1.100000 28.08600
14056 SI 14056 SI SI1 14056 1.100000 28.08600
14057 SI 14057 SI SI1 14057 1.100000 28.08600
14058 SI 14058 SI SI1 14058 1.100000 28.08600
14059 SI 14059 SI SI1 14059 1.100000 28.08600
14060 SI 14060 SI SI1 14060 1.100000 28.08600
14061 SI 14061 SI SI1 14061 1.100000 28.08600
14062 SI 14062 SI SI1 14062 1.100000 28.08600
14063 SI 14063 SI SI1 14063 1.100000 28.08600
14064 SI 14064 SI SI1 14064 1.100000 28.08600
14065 SI 14065 SI SI1 14065 1.100000 28.08600
14066 SI 14066 SI SI1 14066 1.100000 28.08600
14067 SI 14067 SI SI1 14067 1.100000 28.08600
14068 SI 14068 SI SI1 14068 1.100000 28.08600
14069 SI 14069 SI SI1 14069 1.100000 28.08600
14070 SI 14070 SI SI1 14070 1.100000 28.08600
14071 SI 14071 SI SI1 14071 1.100000 28.08600
14072 SI 14072 SI SI1 14072 1.100000 28.08600
14073 SI 14073 SI SI1 14073 1.100000 28.08600
14074 SI 14074 SI SI1 14074 1.100000 28.08600
14075 SI 14075 SI SI1 14075 1.100000 28.08600
14076 SI 14076 SI SI1 14076 1.100000 28.08600
14077 SI 14077 SI SI1 14077 1.100000 28.08600
14078 SI 14078 SI SI1 14078 1.100000 28.08600
14079 SI 14079 SI SI1 14079 1.100000 28.08600
14080 SI 14080 SI SI1 14080 1.100000 28.08600
14081 SI 14081 SI SI1 14081 1.100000 28.08600
14082 SI 14082 SI SI1 14082 1.100000 28.08600
14083 SI 14083 SI SI1 14083 1.100000 28.08600
14084 SI 14084 SI SI1 14084 1.100000 28.08600
14085 SI 14085 SI SI1 14085 1.100000 28.08600
14086 SI 14086 SI SI1 14086 1.100000 28.08600
14087 SI 14087 SI SI1 14087 1.100000 28.08600
14088 SI 14088 SI SI1 14088 1.100000 28.08600
14089 SI 14089 SI SI1 14089 1.100000 28.08600
14090 SI 14090 SI SI1 14090 1.100000 28.08600
14091 SI 14091 SI SI1 14091 1.100000 28.08600
14092 SI 14092 SI SI1 14092 1.100000 28.08600
14093 SI 14093 SI SI1 14093 1.100000 28.08600
14094 SI 14094 SI SI1 14094 1.100000 28.08600
14095 SI 14095 SI SI1 14095 1.100000 28.08600
14096 SI 14096 SI SI1 14096 1.100000 28.08600
14097 SI 14097 SI SI1 14097 1.100000 28.08600
14098 SI 14098 SI SI1 14098 1.100000 28.08600
14099 SI 14099 SI SI1 14099 1.100000 28.08600
14100 SI 14100 SI SI1 14100 1.100000 28.08600
14101 SI 14101 SI SI1 14101 1.100000 28.08600
14102 SI 14102 SI SI1 14102 1.100000 28.08600
14103 SI 14103 SI SI1 14103 1.100000 28.08600
14104 SI 14104 SI SI1 14104 1.100000 28.08600
14105 SI 14105 SI SI1 14105 1.100000 28.08600
14106 SI 14106 SI SI1 14106 1.100000 28.08600
14107 SI 14107 SI SI1 14107 1.100000 28.08600
14108 SI 14108 SI SI1 14108 1.100000 28.08600
14109 SI 14109 SI SI1 14109 1.100000 28.08600
14110 SI 14110 SI SI1 14110 1.100000 28.08600
14111 SI 14111 SI SI1 14111 1.100000 28.08600
14112 SI 14112 SI SI1 14112 1.100000 28.08600
14113 SI 14113 SI SI1 14113 1.100000 28.08600
14114 SI 14114 SI SI1 14114 1.100000 28.08600
14115 SI 14115 SI SI1 14115 1.100000 28.08600
14116 SI 14116 SI SI1 14116 1.100000 28.08600
14117 SI 14117 SI SI1 14117 1.100000 28.08600
14118 SI 14118 SI SI1 14118 1.100000 28.08600
14119 SI 14119 SI SI1 14119 1.100000 28.08600
14120 SI 14120 SI SI1 14120 1.100000 28.08600
14121 SI 14121 SI SI1 14121 1.100000 28.08600
14122 SI 14122 SI SI1 14122 1.100000 28.08600
14123 SI 14123 SI SI1 14123 1.100000 28.08600
14124 SI 14124 SI SI1 14124 1.100000 28.08600
14125 SI 14125 SI SI1 14125 1.100000 28.08600
14126 SI 14126 SI SI1 14126 1.100000 28.08600
14127 SI 14127 SI SI1 14127 1.100000 28.08600
14128 SI 14128 SI SI1 14128 1.100000 28.08600
14129 SI 14129 SI SI1 14129 1.100000 28.08600
14130 SI 14130 SI SI1 14130 1.100000 28.08600
14131 SI 14131 SI SI1 14131 1.100000 28.08600
14132 SI 14132 SI SI1 14132 1.100000 28.08600
14133 SI 14133 SI SI1 14133 1.100000 28.08600
14134 SI 14134 SI SI1 14134 1.100000 28.08600
14135 SI 14135 SI SI1 14135 1.100000 28.08600
14136 SI 14136 SI SI1 14136 1.100000 28.08600
14137 SI 14137 SI SI1 14137 1.100000 28.08600
14138 SI 14138 SI SI1 14138 1.100000 28.08600
14139 SI 14139 SI SI1 14139 1.100000 28.08600
14140 SI 14140 SI SI1 14140 1.100000 28.08600
14141 SI 14141 SI SI1 14141 1.100000 28.08600
14142 SI 14142 SI SI1 14142 1.100000 28.08600
14143 SI 14143 SI SI1 14143 1.100000 28.08600
14144 SI 14144 SI SI1 14144 1.100000 28.08600
14145 SI 14145 SI SI1 14145 1.100000 28.08600
14146 SI 14146 SI SI1 14146 1.100000 28.08600
14147 SI 14147 SI SI1 14147 1.100000 28.08600
14148 SI 14148 SI SI1 14148 1.100000 28.08600
14149 SI 14149 SI SI1 14149 1.100000 28.08600
14150 SI 14150 SI SI1 14150 1.100000 28.08600
14151 SI 14151 SI SI1 14151 1.100000 28.08600
14152 SI 14152 SI SI1 14152 1.100000 28.08600
14153 SI 14153 SI SI1 14153 1.100000 28.08600
14154 SI 14154 SI SI1 14154 1.100000 28.08600
14155 SI 14155 SI SI1 14155 1.100000 28.08600
14156 SI 14156 SI SI1 14156 1.100000 28.08600
14157 SI 14157 SI SI1 14157 1.100000 28.08600
14158 SI 14158 SI SI1 14158 1.100000 28.08600
14159 SI 14159 SI SI1 14159 1.100000 28.08600
14160 SI 14160 SI SI1 14160 1.100000 28.08600
14161 SI 14161 SI SI1 14161 1.100000 28.08600
14162 SI 14162 SI SI1 14162 1.100000 28.08600
14163 SI 14163 SI SI1 14163 1.100000 28.08600
14164 SI 14164 SI SI1 14164 1.100000 28.08600
14165 SI 14165 SI SI1 14165 1.100000 28.08600
14166 SI 14166 SI SI1 14166 1.100000 28.08600
14167 SI 14167 SI SI1 14167 1.100000 28.08600
14168 SI 14168 SI SI1 14168 1.100000 28.08600
14169 SI 14169 SI SI1 14169 1.100000 28.08600
14170 SI 14170 SI SI1 14170 1.100000 28.08600
14171 SI 14171 SI SI1 14171 1.100000 28.08600
14172 SI 14172 SI SI1 14172 1.100000 28.08600
14173 SI 14173 SI SI1 14173 1.100000 28.08600
14174 SI 14174 SI SI1 14174 1.100000 28.08600
14175 SI 14175 SI SI1 14175 1.100000 28.08600
14176 SI 14176 SI SI1 14176 1.100000 28.08600
14177 SI 14177 SI SI1 14177 1.100000 28.08600
14178 SI 14178 SI SI1 14178 1.100000 28.08600
14179 SI 14179 SI SI1 14179 1.100000 28.08600
14180 SI 14180 SI SI1 14180 1.100000 28.08600
14181 SI 14181 SI SI1 14181 1.100000 28.08600
14182 SI 14182 SI SI1 14182 1.100000 28.08600
14183 SI 14183 SI SI1 14183 1.100000 28.08600
14184 SI 14184 SI SI1 14184 1.100000 28.08600
14185 SI 14185 SI SI1 14185 1.100000 28.08600
14186 SI 14186 SI SI1 14186 1.100000 28.08600
14187 SI 14187 SI SI1 14187 1.100000 28.08600
14188 SI 14188 SI SI1 14188 1.100000 28.08600
14189 SI 14189 SI SI1 14189 1.100000 28.08600
14190 SI 14190 SI SI1 14190 1.100000 28.08600
14191 SI 14191 SI SI1 14191 1.100000 28.08600
14192 SI 14192 SI SI1 14192 1.100000 28.08600
14193 SI 14193 SI SI1 14193 1.100000 28.08600
14194 SI 14194 SI SI1 14194 1.100000 28.08600
14195 SI 14195 SI SI1 14195 1.100000 28.08600
14196 SI 14196 SI SI1 14196 1.100000 28.08600
14197 SI 14197 SI SI1 14197 1.100000 28.08600
14198 SI 14198 SI SI1 14198 1.100000 28.08600
14199 SI 14199 SI SI1 14199 1.100000 28.08600
14200 SI 14200 SI SI1 14200 1.100000 28.08600
14201 SI 14201 SI SI1 14201 1.100000 28.08600
14202 SI 14202 SI SI1 14202 1.100000 28.08600
14203 SI 14203 SI SI1 14203 1.100000 28.08600
14204 SI 14204 SI SI1 14204 1.100000 28.08600
14205 SI 14205 SI SI1 14205 1.100000 28.08600
14206 SI 14206 SI SI1 14206 1.100000 28.08600
14207 SI 14207 SI SI1 14207 1.100000 28.08600
14208 SI 14208 SI SI1 14208 1.100000 28.08600
14209 SI 14209 SI SI1 14209 1.100000 28.08600
14210 SI 14210 SI SI1 14210 1.100000 28.08600
14211 SI 14211 SI SI1 14211 1.100000 28.08600
14212 SI 14212 SI SI1 14212 1.100000 28.08600
14213 SI 14213 SI SI1 14213 1.100000 28.08600
14214 SI 14214 SI SI1 14214 1.100000 28.08600
14215 SI 14215 SI SI1 14215 1.100000 28.08600
14216 SI 14216 SI SI1 14216 1.100000 28.08600
14217 SI 14217 SI SI1 14217 1.100000 28.08600
14218 SI 14218 SI SI1 14218 1.100000 28.08600
14219 SI 14219 SI SI1 14219 1.100000 28.08600
14220 SI 14220 SI SI1 14220 1.100000 28.08600
14221 SI 14221 SI SI1 14221 1.100000 28.08600
14222 SI 14222 SI SI1 14222 1.100000 28.08600
14223 SI 14223 SI SI1 14223 1.100000 28.08600
14224 SI 14224 SI SI1 14224 1.100000 28.08600
14225 SI 14225 SI SI1 14225 1.100000 28.08600
14226 SI 14226 SI SI1 14226 1.100000 28.08600
14227 SI 14227 SI SI1 14227 1.100000 28.08600
14228 SI 14228 SI SI1 14228 1.100000 28.08600
14229 SI 14229 SI SI1 14229 1.100000 28.08600
14230 SI 14230 SI SI1 14230 1.100000 28.08600
14231 SI 14231 SI SI1 14231 1.100000 28.08600
14232 SI 14232 SI SI1 14232 1.100000 28.08600
14233 SI 14233 SI SI1 14233 1.100000 28.08600
14234 SI 14234 SI SI1 14234 1.100000 28.08600
14235 SI 14235 SI SI1 14235 1.100000 28.08600
14236 SI 14236 SI SI1 14236 1.100000 28.08600
14237 SI 14237 SI SI1 14237 1.100000 28.08600
14238 SI 14238 SI SI1 14238 1.100000 28.08600
14239 SI 14239 SI SI1 14239 1.100000 28.08600
14240 SI 14240 SI SI1 14240 1.100000 28.08600
14241 SI 14241 SI SI1 14241 1.100000 28.08600
14242 SI 14242 SI SI1 14242 1.100000 28.08600
14243 SI 14243 SI SI1 14243 1.100000 28.08600
14244 SI 14244 SI SI1 14244 1.100000 28.08600
14245 SI 14245 SI SI1 14245 1.100000 28.08600
14246 SI 14246 SI SI1 14246 1.100000 28.08600
14247 SI 14247 SI SI1 14247 1.100000 28.08600
14248 SI 14248 SI SI1 14248 1.100000 28.08600
14249 SI 14249 SI SI1 14249 1.100000 28.08600
14250 SI 14250 SI SI1 14250 1.100000 28.08600
14251 SI 14251 SI SI1 14251 1.100000 28.08600
14252 SI 14252 SI SI1 14252 1.100000 28.08600
14253 SI 14253 SI SI1 14253 1.100000 28.08600
14254 SI 14254 SI SI1 14254 1.100000 28.08600
14255 SI 14255 SI SI1 14255 1.100000 28.08600
14256 SI 14256 SI SI1 14256 1.100000 28.08600
14257 SI 14257 SI SI1 14257 1.100000 28.08600
14258 SI 14258 SI SI1 14258 1.100000 28.08600
14259 SI 14259 SI SI1 14259 1.100000 28.08600
14260 SI 14260 SI SI1 14260 1.100000 28.08600
14261 SI 14261 SI SI1 14261 1.100000 28.08600
14262 SI 14262 SI SI1 14262 1.100000 28.08600
14263 SI 14263 SI SI1 14263 1.100000 28.08600
14264 SI 14264 SI SI1 14264 1.100000 28.08600
14265 SI 14265 SI SI1 14265 1.100000 28.08600
14266 SI 14266 SI SI1 14266 1.100000 28.08600
14267 SI 14267 SI SI1 14267 1.100000 28.08600
14268 SI 14268 SI SI1 14268 1.100000 28.08600
14269 SI 14269 SI SI1 14269 1.100000 28.08600
14270 SI 14270 SI SI1 14270 1.100000 28.08600
14271 SI 14271 SI SI1 14271 1.100000 28.08600
14272 SI 14272 SI SI1 14272 1.100000 28.08600
14273 SI 14273 SI SI1 14273 1.100000 28.08600
14274 SI 14274 SI SI1 14274 1.100000 28.08600
14275 SI 14275 SI SI1 14275 1.100000 28.08600
14276 SI 14276 SI SI1 14276 1.100000 28.08600
14277 SI 14277 SI SI1 14277 1.100000 28.08600
14278 SI 14278 SI SI1 14278 1.100000 28.08600
14279 SI 14279 SI SI1 14279 1.100000 28.08600
14280 SI 14280 SI SI1 14280 1.100000 28.08600
14281 SI 14281 SI SI1 14281 1.100000 28.08600
14282 SI 14282 SI SI1 14282 1.100000 28.08600
14283 SI 14283 SI SI1 14283 1.100000 28.08600
14284 SI 14284 SI SI1 14284 1.100000 28.08600
14285 SI 14285 SI SI1 14285 1.100000 28.08600
14286 SI 14286 SI SI1 14286 1.100000 28.08600
14287 SI 14287 SI SI1 14287 1.100000 28.08600
14288 SI 14288 SI SI1 14288 1.100000 28.08600
14289 SI 14289 SI SI1 14289 1.100000 28.08600
14290 SI 14290 SI SI1 14290 1.100000 28.08600
14291 SI 14291 SI SI1 14291 1.100000 28.08600
14292 SI 14292 SI SI1 14292 1.100000 28.08600
14293 SI 14293 SI SI1 14293 1.100000 28.08600
14294 SI 14294 SI SI1 14294 1.100000 28.08600
14295 SI 14295 SI SI1 14295 1.100000 28.08600
14296 SI 14296 SI SI1 14296 1.100000 28.08600
14297 SI 14297 SI SI1 14297 1.100000 28.08600
14298 SI 14298 SI SI1 14298 1.100000 28.08600
14299 SI 14299 SI SI1 14299 1.100000 28.08600
14300 SI 14300 SI SI1 14300 1.100000 28.08600
14301 SI 14301 SI SI1 14301 1.100000 28.08600
14302 SI 14302 SI SI1 14302 1.100000 28.08600
14303 SI 14303 SI SI1 14303 1.100000 28.08600
14304 SI 14304 SI SI1 14304 1.100000 28.08600
14305 SI 14305 SI SI1 14305 1.100000 28.08600
14306 SI 14306 SI SI1 14306 1.100000 28.08600
14307 SI 14307 SI SI1 14307 1.100000 28.08600
14308 SI 14308 SI SI1 14308 1.100000 28.08600
14309 SI 14309 SI SI1 14309 1.100000 28.08600
14310 SI 14310 SI SI1 14310 1.100000 28.08600
14311 SI 14311 SI SI1 14311 1.100000 28.08600
14312 SI 14312 SI SI1 14312 1.100000 28.08600
14313 SI 14313 SI SI1 14313 1.100000 28.08600
14314 SI 14314 SI SI1 14314 1.100000 28.08600
14315 SI 14315 SI SI1 14315 1.100000 28.08600
14316 SI 14316 SI SI1 14316 1.100000 28.08600
14317 SI 14317 SI SI1 14317 1.100000 28.08600
14318 SI 14318 SI SI1 14318 1.100000 28.08600
14319 SI 14319 SI SI1 14319 1.100000 28.08600
14320 SI 14320 SI SI1 14320 1.100000 28.08600
14321 SI 14321 SI SI1 14321 1.100000 28.08600
14322 SI 14322 SI SI1 14322 1.100000 28.08600
14323 SI 14323 SI SI1 14323 1.100000 28.08600
14324 SI 14324 SI SI1 14324 1.100000 28.08600
14325 SI 14325 SI SI1 14325 1.100000 28.08600
14326 SI 14326 SI SI1 14326 1.100000 28.08600
14327 SI 14327 SI SI1 14327 1.100000 28.08600
14328 SI 14328 SI SI1 14328 1.100000 28.08600
14329 SI 14329 SI SI1 14329 1.100000 28.08600
14330 SI 14330 SI SI1 14330 1.100000 28.08600
14331 SI 14331 SI SI1 14331 1.100000 28.08600
14332 SI 14332 SI SI1 14332 1.100000 28.08600
14333 SI 14333 SI SI1 14333 1.100000 28.08600
14334 SI 14334 SI SI1 14334 1.100000 28.08600
14335 SI 14335 SI SI1 14335 1.100000 28.08600
14336 SI 14336 SI SI1 14336 1.100000 28.08600
14337 SI 14337 SI SI1 14337 1.100000 28.08600
14338 SI 14338 SI SI1 14338 1.100000 28.08600
14339 SI 14339 SI SI1 14339 1.100000 28.08600
14340 SI 14340 SI SI1 14340 1.100000 28.08600
14341 SI 14341 SI SI1 14341 1.100000 28.08600
14342 SI 14342 SI SI1 14342 1.100000 28.08600
14343 SI 14343 SI SI1 14343 1.100000 28.08600
14344 SI 14344 SI SI1 14344 1.100000 28.08600
14345 SI 14345 SI SI1 14345 1.100000 28.08600
14346 SI 14346 SI SI1 14346 1.100000 28.08600
14347 SI 14347 SI SI1 14347 1.100000 28.08600
14348 SI 14348 SI SI1 14348 1.100000 28.08600
14349 SI 14349 SI SI1 14349 1.100000 28.08600
14350 SI 14350 SI SI1 14350 1.100000 28.08600
14351 SI 14351 SI SI1 14351 1.100000 28.08600
14352 SI 14352 SI SI1 14352 1.100000 28.08600
14353 SI 14353 SI SI1 14353 1.100000 28.08600
14354 SI 14354 SI SI1 14354 1.100000 28.08600
14355 SI 14355 SI SI1 14355 1.100000 28.08600
14356 SI 14356 SI SI1 14356 1.100000 28.08600
14357 SI 14357 SI SI1 14357 1.100000 28.08600
14358 SI 14358 SI SI1 14358 1.100000 28.08600
14359 SI 14359 SI SI1 14359 1.100000 28.08600
14360 SI 14360 SI SI1 14360 1.100000 28.08600
14361 SI 14361 SI SI1 14361 1.100000 28.08600
14362 SI 14362 SI SI1 14362 1.100000 28.08600
14363 SI 14363 SI SI1 14363 1.100000 28.08600
14364 SI 14364 SI SI1 14364 1.100000 28.08600
14365 SI 14365 SI SI1 14365 1.100000 28.08600
14366 SI 14366 SI SI1 14366 1.100000 28.08600
14367 SI 14367 SI SI1 14367 1.100000 28.08600
14368 SI 14368 SI SI1 14368 1.100000 28.08600
14369 SI 14369 SI SI1 14369 1.100000 28.08600
14370 SI 14370 SI SI1 14370 1.100000 28.08600
14371 SI 14371 SI SI1 14371 1.100000 28.08600
14372 SI 14372 SI SI1 14372 1.100000 28.08600
14373 SI 14373 SI SI1 14373 1.100000 28.08600
14374 SI 14374 SI SI1 14374 1.100000 28.08600
14375 SI 14375 SI SI1 14375 1.100000 28.08600
14376 SI 14376 SI SI1 14376 1.100000 28.08600
14377 SI 14377 SI SI1 14377 1.100000 28.08600
14378 SI 14378 SI SI1 14378 1.100000 28.08600
14379 SI 14379 SI SI1 14379 1.100000 28.08600
14380 SI 14380 SI SI1 14380 1.100000 28.08600
14381 SI 14381 SI SI1 14381 1.100000 28.08600
14382 SI 14382 SI SI1 14382 1.100000 28.08600
14383 SI 14383 SI SI1 14383 1.100000 28.08600
14384 SI 14384 SI SI1 14384 1.100000 28.08600
14385 SI 14385 SI SI1 14385 1.100000 28.08600
14386 SI 14386 SI SI1 14386 1.100000 28.08600
14387 SI 14387 SI SI1 14387 1.100000 28.08600
14388 SI 14388 SI SI1 14388 1.100000 28.08600
14389 SI 14389 SI SI1 14389 1.100000 28.08600
14390 SI 14390 SI SI1 14390 1.100000 28.08600
14391 SI 14391 SI SI1 14391 1.100000 28.08600
14392 SI 14392 SI SI1 14392 1.100000 28.08600
14393 SI 14393 SI SI1 14393 1.100000 28.08600
14394 SI 14394 SI SI1 14394 1.100000 28.08600
14395 SI 14395 SI SI1 14395 1.100000 28.08600
14396 SI 14396 SI SI1 14396 1.100000 28.08600
14397 SI 14397 SI SI1 14397 1.100000 28.08600
14398 SI 14398 SI SI1 14398 1.100000 28.08600
14399 SI 14399 SI SI1 14399 1.100000 28.08600
14400 SI 14400 SI SI1 14400 1.100000 28.08600
14401 SI 14401 SI SI1 14401 1.100000 28.08600
14402 SI 14402 SI SI1 14402 1.100000 28.08600
14403 SI 14403 SI SI1 14403 1.100000 28.08600
14404 SI 14404 SI SI1 14404 1.100000 28.08600
14405 SI 14405 SI SI1 14405 1.100000 28.08600
14406 SI 14406 SI SI1 14406 1.100000 28.08600
14407 SI 14407 SI SI1 14407 1.100000 28.08600
14408 SI 14408 SI SI1 14408 1.100000 28.08600
14409 SI 14409 SI SI1 14409 1.100000 28.08600
14410 SI 14410 SI SI1 14410 1.100000 28.08600
14411 SI 14411 SI SI1 14411 1.100000 28.08600
14412 SI 14412 SI SI1 14412 1.100000 28.08600
14413 SI 14413 SI SI1 14413 1.100000 28.08600
14414 SI 14414 SI SI1 14414 1.100000 28.08600
14415 SI 14415 SI SI1 14415 1.100000 28.08600
14416 SI 14416 SI SI1 14416 1.100000 28.08600
14417 SI 14417 SI SI1 14417 1.100000 28.08600
14418 SI 14418 SI SI1 14418 1.100000 28.08600
14419 SI 14419 SI SI1 14419 1.100000 28.08600
14420 SI 14420 SI SI1 14420 1.100000 28.08600
14421 SI 14421 SI SI1 14421 1.100000 28.08600
14422 SI 14422 SI SI1 14422 1.100000 28.08600
14423 SI 14423 SI SI1 14423 1.100000 28.08600
14424 SI 14424 SI SI1 14424 1.100000 28.08600
14425 SI 14425 SI SI1 14425 1.100000 28.08600
14426 SI 14426 SI SI1 14426 1.100000 28.08600
14427 SI 14427 SI SI1 14427 1.100000 28.08600
14428 SI 14428 SI SI1 14428 1.100000 28.08600
14429 SI 14429 SI SI1 14429 1.100000 28.08600
14430 SI 14430 SI SI1 14430 1.100000 28.08600
14431 SI 14431 SI SI1 14431 1.100000 28.08600
14432 SI 14432 SI SI1 14432 1.100000 28.08600
14433 SI 14433 SI SI1 14433 1.100000 28.08600
14434 SI 14434 SI SI1 14434 1.100000 28.08600
14435 SI 14435 SI SI1 14435 1.100000 28.08600
14436 SI 14436 SI SI1 14436 1.100000 28.08600
14437 SI 14437 SI SI1 14437 1.100000 28.08600
14438 SI 14438 SI SI1 14438 1.100000 28.08600
14439 SI 14439 SI SI1 14439 1.100000 28.08600
14440 SI 14440 SI SI1 14440 1.100000 28.08600
14441 SI 14441 SI SI1 14441 1.100000 28.08600
14442 SI 14442 SI SI1 14442 1.100000 28.08600
14443 SI 14443 SI SI1 14443 1.100000 28.08600
14444 SI 14444 SI SI1 14444 1.100000 28.08600
14445 SI 14445 SI SI1 14445 1.100000 28.08600
14446 SI 14446 SI SI1 14446 1.100000 28.08600
14447 SI 14447 SI SI1 14447 1.100000 28.08600
14448 SI 14448 SI SI1 14448 1.100000 28.08600
14449 SI 14449 SI SI1 14449 1.100000 28.08600
14450 SI 14450 SI SI1 14450 1.100000 28.08600
14451 SI 14451 SI SI1 14451 1.100000 28.08600
14452 SI 14452 SI SI1 14452 1.100000 28.08600
14453 SI 14453 SI SI1 14453 1.100000 28.08600
14454 SI 14454 SI SI1 14454 1.100000 28.08600
14455 SI 14455 SI SI1 14455 1.100000 28.08600
14456 SI 14456 SI SI1 14456 1.100000 28.08600
14457 SI 14457 SI SI1 14457 1.100000 28.08600
14458 SI 14458 SI SI1 14458 1.100000 28.08600
14459 SI 14459 SI SI1 14459 1.100000 28.08600
14460 SI 14460 SI SI1 14460 1.100000 28.08600
14461 SI 14461 SI SI1 14461 1.100000 28.08600
14462 SI 14462 SI SI1 14462 1.100000 28.08600
14463 SI 14463 SI SI1 14463 1.100000 28.08600
14464 SI 14464 SI SI1 14464 1.100000 28.08600
14465 SI 14465 SI SI1 14465 1.100000 28.08600
14466 SI 14466 SI SI1 14466 1.100000 28.08600
14467 SI 14467 SI SI1 14467 1.100000 28.08600
14468 SI 14468 SI SI1 14468 1.100000 28.08600
14469 SI 14469 SI SI1 14469 1.100000 28.08600
14470 SI 14470 SI SI1 14470 1.100000 28.08600
14471 SI 14471 SI SI1 14471 1.100000 28.08600
14472 SI 14472 SI SI1 14472 1.100000 28.08600
14473 SI 14473 SI SI1 14473 1.100000 28.08600
14474 SI 14474 SI SI1 14474 1.100000 28.08600
14475 SI 14475 SI SI1 14475 1.100000 28.08600
14476 SI 14476 SI SI1 14476 1.100000 28.08600
14477 SI 14477 SI SI1 14477 1.100000 28.08600
14478 SI 14478 SI SI1 14478 1.100000 28.08600
14479 SI 14479 SI SI1 14479 1.100000 28.08600
14480 SI 14480 SI SI1 14480 1.100000 28.08600
14481 SI 14481 SI SI1 14481 1.100000 28.08600
14482 SI 14482 SI SI1 14482 1.100000 28.08600
14483 SI 14483 SI SI1 14483 1.100000 28.08600
14484 SI 14484 SI SI1 14484 1.100000 28.08600
14485 SI 14485 SI SI1 14485 1.100000 28.08600
14486 SI 14486 SI SI1 14486 1.100000 28.08600
14487 SI 14487 SI SI1 14487 1.100000 28.08600
14488 SI 14488 SI SI1 14488 1.100000 28.08600
14489 SI 14489 SI SI1 14489 1.100000 28.08600
14490 SI 14490 SI SI1 14490 1.100000 28.08600
14491 SI 14491 SI SI1 14491 1.100000 28.08600
14492 SI 14492 SI SI1 14492 1.100000 28.08600
14493 SI 14493 SI SI1 14493 1.100000 28.08600
14494 SI 14494 SI SI1 14494 1.100000 28.08600
14495 SI 14495 SI SI1 14495 1.100000 28.08600
14496 SI 14496 SI SI1 14496 1.100000 28.08600
14497 SI 14497 SI SI1 14497 1.100000 28.08600
14498 SI 14498 SI SI1 14498 1.100000 28.08600
14499 SI 14499 SI SI1 14499 1.100000 28.08600
14500 SI 14500 SI SI1 14500 1.100000 28.08600
14501 SI 14501 SI SI1 14501 1.100000 28.08600
14502 SI 14502 SI SI1 14502 1.100000 28.08600
14503 SI 14503 SI SI1 14503 1.100000 28.08600
14504 SI 14504 SI SI1 14504 1.100000 28.08600
14505 SI 14505 SI SI1 14505 1.100000 28.08600
14506 SI 14506 SI SI1 14506 1.100000 28.08600
14507 SI 14507 SI SI1 14507 1.100000 28.08600
14508 SI 14508 SI SI1 14508 1.100000 28.08600
14509 SI 14509 SI SI1 14509 1.100000 28.08600
14510 SI 14510 SI SI1 14510 1.100000 28.08600
14511 SI 14511 SI SI1 14511 1.100000 28.08600
14512 SI 14512 SI SI1 14512 1.100000 28.08600
14513 SI 14513 SI SI1 14513 1.100000 28.08600
14514 SI 14514 SI SI1 14514 1.100000 28.08600
14515 SI 14515 SI SI1 14515 1.100000 28.08600
14516 SI 14516 SI SI1 14516 1.100000 28.08600
14517 SI 14517 SI SI1 14517 1.100000 28.08600
14518 SI 14518 SI SI1 14518 1.100000 28.08600
14519 SI 14519 SI SI1 14519 1.100000 28.08600
14520 SI 14520 SI SI1 14520 1.100000 28.08600
14521 SI 14521 SI SI1 14521 1.100000 28.08600
14522 SI 14522 SI SI1 14522 1.100000 28.08600
14523 SI 14523 SI SI1 14523 1.100000 28.08600
14524 SI 14524 SI SI1 14524 1.100000 28.08600
14525 SI 14525 SI SI1 14525 1.100000 28.08600
14526 SI 14526 SI SI1 14526 1.100000 28.08600
14527 SI 14527 SI SI1 14527 1.100000 28.08600
14528 SI 14528 SI SI1 14528 1.100000 28.08600
14529 SI 14529 SI SI1 14529 1.100000 28.08600
14530 SI 14530 SI SI1 14530 1.100000 28.08600
14531 SI 14531 SI SI1 14531 1.100000 28.08600
14532 SI 14532 SI SI1 14532 1.100000 28.08600
14533 SI 14533 SI SI1 14533 1.100000 28.08600
14534 SI 14534 SI SI1 14534 1.100000 28.08600
14535 SI 14535 SI SI1 14535 1.100000 28.08600
14536 SI 14536 SI SI1 14536 1.100000 28.08600
14537 SI 14537 SI SI1 14537 1.100000 28.08600
14538 SI 14538 SI SI1 14538 1.100000 28.08600
14539 SI 14539 SI SI1 14539 1.100000 28.08600
14540 SI 14540 SI SI1 14540 1.100000 28.08600
14541 SI 14541 SI SI1 14541 1.100000 28.08600
14542 SI 14542 SI SI1 14542 1.100000 28.08600
14543 SI 14543 SI SI1 14543 1.100000 28.08600
14544 SI 14544 SI SI1 14544 1.100000 28.08600
14545 SI 14545 SI SI1 14545 1.100000 28.08600
14546 SI 14546 SI SI1 14546 1.100000 28.08600
14547 SI 14547 SI SI1 14547 1.100000 28.08600
14548 SI 14548 SI SI1 14548 1.100000 28.08600
14549 SI 14549 SI SI1 14549 1.100000 28.08600
14550 SI 14550 SI SI1 14550 1.100000 28.08600
14551 SI 14551 SI SI1 14551 1.100000 28.08600
14552 SI 14552 SI SI1 14552 1.100000 28.08600
14553 SI 14553 SI SI1 14553 1.100000 28.08600
14554 SI 14554 SI SI1 14554 1.100000 28.08600
14555 SI 14555 SI SI1 14555 1.100000 28.08600
14556 SI 14556 SI SI1 14556 1.100000 28.08600
14557 SI 14557 SI SI1 14557 1.100000 28.08600
14558 SI 14558 SI SI1 14558 1.100000 28.08600
14559 SI 14559 SI SI1 14559 1.100000 28.08600
14560 SI 14560 SI SI1 14560 1.100000 28.08600
14561 SI 14561 SI SI1 14561 1.100000 28.08600
14562 SI 14562 SI SI1 14562 1.100000 28.08600
14563 SI 14563 SI SI1 14563 1.100000 28.08600
14564 SI 14564 SI SI1 14564 1.100000 28.08600
14565 SI 14565 SI SI1 14565 1.100000 28.08600
14566 SI 14566 SI SI1 14566 1.100000 28.08600
14567 SI 14567 SI SI1 14567 1.100000 28.08600
14568 SI 14568 SI SI1 14568 1.100000 28.08600
14569 SI 14569 SI SI1 14569 1.100000 28.08600
14570 SI 14570 SI SI1 14570 1.100000 28.08600
14571 SI 14571 SI SI1 14571 1.100000 28.08600
14572 SI 14572 SI SI1 14572 1.100000 28.08600
14573 SI 14573 SI SI1 14573 1.100000 28.08600
14574 SI 14574 SI SI1 14574 1.100000 28.08600
14575 SI 14575 SI SI1 14575 1.100000 28.08600
14576 SI 14576 SI SI1 14576 1.100000 28.08600
14577 SI 14577 SI SI1 14577 1.100000 28.08600
14578 SI 14578 SI SI1 14578 1.100000 28.08600
14579 SI 14579 SI SI1 14579 1.100000 28.08600
14580 SI 14580 SI SI1 14580 1.100000 28.08600
14581 SI 14581 SI SI1 14581 1.100000 28.08600
14582 SI 14582 SI SI1 14582 1.100000 28.08600
14583 SI 14583 SI SI1 14583 1.100000 28.08600
14584 SI 14584 SI SI1 14584 1.100000 28.08600
14585 SI 14585 SI SI1 14585 1.100000 28.08600
14586 SI 14586 SI SI1 14586 1.100000 28.08600
14587 SI 14587 SI SI1 14587 1.100000 28.08600
14588 SI 14588 SI SI1 14588 1.100000 28.08600
14589 SI 14589 SI SI1 14589 1.100000 28.08600
14590 SI 14590 SI SI1 14590 1.100000 28.08600
14591 SI 14591 SI SI1 14591 1.100000 28.08600
14592 SI 14592 SI SI1 14592 1.100000 28.08600
14593 SI 14593 SI SI1 14593 1.100000 28.08600
14594 SI 14594 SI SI1 14594 1.100000 28.08600
14595 SI 14595 SI SI1 14595 1.100000 28.08600
14596 SI 14596 SI SI1 14596 1.100000 28.08600
14597 SI 14597 SI SI1 14597 1.100000 28.08600
14598 SI 14598 SI SI1 14598 1.100000 28.08600
14599 SI 14599 SI SI1 14599 1.100000 28.08600
14600 SI 14600 SI SI1 14600 1.100000 28.08600
14601 SI 14601 SI SI1 14601 1.100000 28.08600
14602 SI 14602 SI SI1 14602 1.100000 28.08600
14603 SI 14603 SI SI1 14603 1.100000 28.08600
14604 SI 14604 SI SI1 14604 1.100000 28.08600
14605 SI 14605 SI SI1 14605 1.100000 28.08600
14606 SI 14606 SI SI1 14606 1.100000 28.08600
14607 SI 14607 SI SI1 14607 1.100000 28.08600
14608 SI 14608 SI SI1 14608 1.100000 28.08600
14609 SI 14609 SI SI1 14609 1.100000 28.08600
14610 SI 14610 SI SI1 14610 1.100000 28.08600
14611 SI 14611 SI SI1 14611 1.100000 28.08600
14612 SI 14612 SI SI1 14612 1.100000 28.08600
14613 SI 14613 SI SI1 14613 1.100000 28.08600
14614 SI 14614 SI SI1 14614 1.100000 28.08600
14615 SI 14615 SI SI1 14615 1.100000 28.08600
14616 SI 14616 SI SI1 14616 1.100000 28.08600
14617 SI 14617 SI SI1 14617 1.100000 28.08600
14618 SI 14618 SI SI1 14618 1.100000 28.08600
14619 SI 14619 SI SI1 14619 1.100000 28.08600
14620 SI 14620 SI SI1 14620 1.100000 28.08600
14621 SI 14621 SI SI1 14621 1.100000 28.08600
14622 SI 14622 SI SI1 14622 1.100000 28.08600
14623 SI 14623 SI SI1 14623 1.100000 28.08600
14624 SI 14624 SI SI1 14624 1.100000 28.08600
14625 SI 14625 SI SI1 14625 1.100000 28.08600
14626 SI 14626 SI SI1 14626 1.100000 28.08600
14627 SI 14627 SI SI1 14627 1.100000 28.08600
14628 SI 14628 SI SI1 14628 1.100000 28.08600
14629 SI 14629 SI SI1 14629 1.100000 28.08600
14630 SI 14630 SI SI1 14630 1.100000 28.08600
14631 SI 14631 SI SI1 14631 1.100000 28.08600
14632 SI 14632 SI SI1 14632 1.100000 28.08600
14633 SI 14633 SI SI1 14633 1.100000 28.08600
14634 SI 14634 SI SI1 14634 1.100000 28.08600
14635 SI 14635 SI SI1 14635 1.100000 28.08600
14636 SI 14636 SI SI1 14636 1.100000 28.08600
14637 SI 14637 SI SI1 14637 1.100000 28.08600
14638 SI 14638 SI SI1 14638 1.100000 28.08600
14639 SI 14639 SI SI1 14639 1.100000 28.08600
14640 SI 14640 SI SI1 14640 1.100000 28.08600
14641 SI 14641 SI SI1 14641 1.100000 28.08600
14642 SI 14642 SI SI1 14642 1.100000 28.08600
14643 SI 14643 SI SI1 14643 1.100000 28.08600
14644 SI 14644 SI SI1 14644 1.100000 28.08600
14645 SI 14645 SI SI1 14645 1.100000 28.08600
14646 SI 14646 SI SI1 14646 1.100000 28.08600
14647 SI 14647 SI SI1 14647 1.100000 28.08600
14648 SI 14648 SI SI1 14648 1.100000 28.08600
14649 SI 14649 SI SI1 14649 1.100000 28.08600
14650 SI 14650 SI SI1 14650 1.100000 28.08600
14651 SI 14651 SI SI1 14651 1.100000 28.08600
14652 SI 14652 SI SI1 14652 1.100000 28.08600
14653 SI 14653 SI SI1 14653 1.100000 28.08600
14654 SI 14654 SI SI1 14654 1.100000 28.08600
14655 SI 14655 SI SI1 14655 1.100000 28.08600
14656 SI 14656 SI SI1 14656 1.100000 28.08600
14657 SI 14657 SI SI1 14657 1.100000 28.08600
14658 SI 14658 SI SI1 14658 1.100000 28.08600
14659 SI 14659 SI SI1 14659 1.100000 28.08600
14660 SI 14660 SI SI1 14660 1.100000 28.08600
14661 SI 14661 SI SI1 14661 1.100000 28.08600
14662 SI 14662 SI SI1 14662 1.100000 28.08600
14663 SI 14663 SI SI1 14663 1.100000 28.08600
14664 SI 14664 SI SI1 14664 1.100000 28.08600
14665 SI 14665 SI SI1 14665 1.100000 28.08600
14666 SI 14666 SI SI1 14666 1.100000 28.08600
14667 SI 14667 SI SI1 14667 1.100000 28.08600
14668 SI 14668 SI SI1 14668 1.100000 28.08600
14669 SI 14669 SI SI1 14669 1.100000 28.08600
14670 SI 14670 SI SI1 14670 1.100000 28.08600
14671 SI 14671 SI SI1 14671 1.100000 28.08600
14672 SI 14672 SI SI1 14672 1.100000 28.08600
14673 SI 14673 SI SI1 14673 1.100000 28.08600
14674 SI 14674 SI SI1 14674 1.100000 28.08600
14675 SI 14675 SI SI1 14675 1.100000 28.08600
14676 SI 14676 SI SI1 14676 1.100000 28.08600
14677 SI 14677 SI SI1 14677 1.100000 28.08600
14678 SI 14678 SI SI1 14678 1.100000 28.08600
14679 SI 14679 SI SI1 14679 1.100000 28.08600
14680 SI 14680 SI SI1 14680 1.100000 28.08600
14681 SI 14681 SI SI1 14681 1.100000 28.08600
14682 SI 14682 SI SI1 14682 1.100000 28.08600
14683 SI 14683 SI SI1 14683 1.100000 28.08600
14684 SI 14684 SI SI1 14684 1.100000 28.08600
14685 SI 14685 SI SI1 14685 1.100000 28.08600
14686 SI 14686 SI SI1 14686 1.100000 28.08600
14687 SI 14687 SI SI1 14687 1.100000 28.08600
14688 SI 14688 SI SI1 14688 1.100000 28.08600
14689 SI 14689 SI SI1 14689 1.100000 28.08600
14690 SI 14690 SI SI1 14690 1.100000 28.08600
14691 SI 14691 SI SI1 14691 1.100000 28.08600
14692 SI 14692 SI SI1 14692 1.100000 28.08600
14693 SI 14693 SI SI1 14693 1.100000 28.08600
14694 SI 14694 SI SI1 14694 1.100000 28.08600
14695 SI 14695 SI SI1 14695 1.100000 28.08600
14696 SI 14696 SI SI1 14696 1.100000 28.08600
14697 SI 14697 SI SI1 14697 1.100000 28.08600
14698 SI 14698 SI SI1 14698 1.100000 28.08600
14699 SI 14699 SI SI1 14699 1.100000 28.08600
14700 SI 14700 SI SI1 14700 1.100000 28.08600
14701 SI 14701 SI SI1 14701 1.100000 28.08600
14702 SI 14702 SI SI1 14702 1.100000 28.08600
14703 SI 14703 SI SI1 14703 1.100000 28.08600
14704 SI 14704 SI SI1 14704 1.100000 28.08600
14705 SI 14705 SI SI1 14705 1.100000 28.08600
14706 SI 14706 SI SI1 14706 1.100000 28.08600
14707 SI 14707 SI SI1 14707 1.100000 28.08600
14708 SI 14708 SI SI1 14708 1.100000 28.08600
14709 SI 14709 SI SI1 14709 1.100000 28.08600
14710 SI 14710 SI SI1 14710 1.100000 28.08600
14711 SI 14711 SI SI1 14711 1.100000 28.08600
14712 SI 14712 SI SI1 14712 1.100000 28.08600
14713 SI 14713 SI SI1 14713 1.100000 28.08600
14714 SI 14714 SI SI1 14714 1.100000 28.08600
14715 SI 14715 SI SI1 14715 1.100000 28.08600
14716 SI 14716 SI SI1 14716 1.100000 28.08600
14717 SI 14717 SI SI1 14717 1.100000 28.08600
14718 SI 14718 SI SI1 14718 1.100000 28.08600
14719 SI 14719 SI SI1 14719 1.100000 28.08600
14720 SI 14720 SI SI1 14720 1.100000 28.08600
14721 SI 14721 SI SI1 14721 1.100000 28.08600
14722 SI 14722 SI SI1 14722 1.100000 28.08600
14723 SI 14723 SI SI1 14723 1.100000 28.08600
14724 SI 14724 SI SI1 14724 1.100000 28.08600
14725 SI 14725 SI SI1 14725 1.100000 28.08600
14726 SI 14726 SI SI1 14726 1.100000 28.08600
14727 SI 14727 SI SI1 14727 1.100000 28.08600
14728 SI 14728 SI SI1 14728 1.100000 28.08600
14729 SI 14729 SI SI1 14729 1.100000 28.08600
14730 SI 14730 SI SI1 14730 1.100000 28.08600
14731 SI 14731 SI SI1 14731 1.100000 28.08600
14732 SI 14732 SI SI1 14732 1.100000 28.08600
14733 SI 14733 SI SI1 14733 1.100000 28.08600
14734 SI 14734 SI SI1 14734 1.100000 28.08600
14735 SI 14735 SI SI1 14735 1.100000 28.08600
14736 SI 14736 SI SI1 14736 1.100000 28.08600
14737 SI 14737 SI SI1 14737 1.100000 28.08600
14738 SI 14738 SI SI1 14738 1.100000 28.08600
14739 SI 14739 SI SI1 14739 1.100000 28.08600
14740 SI 14740 SI SI1 14740 1.100000 28.08600
14741 SI 14741 SI SI1 14741 1.100000 28.08600
14742 SI 14742 SI SI1 14742 1.100000 28.08600
14743 SI 14743 SI SI1 14743 1.100000 28.08600
14744 SI 14744 SI SI1 14744 1.100000 28.08600
14745 SI 14745 SI SI1 14745 1.100000 28.08600
14746 SI 14746 SI SI1 14746 1.100000 28.08600
14747 SI 14747 SI SI1 14747 1.100000 28.08600
14748 SI 14748 SI SI1 14748 1.100000 28.08600
14749 SI 14749 SI SI1 14749 1.100000 28.08600
14750 SI 14750 SI SI1 14750 1.100000 28.08600
14751 SI 14751 SI SI1 14751 1.100000 28.08600
14752 SI 14752 SI SI1 14752 1.100000 28.08600
14753 SI 14753 SI SI1 14753 1.100000 28.08600
14754 SI 14754 SI SI1 14754 1.100000 28.08600
14755 SI 14755 SI SI1 14755 1.100000 28.08600
14756 SI 14756 SI SI1 14756 1.100000 28.08600
14757 SI 14757 SI SI1 14757 1.100000 28.08600
14758 SI 14758 SI SI1 14758 1.100000 28.08600
14759 SI 14759 SI SI1 14759 1.100000 28.08600
14760 SI 14760 SI SI1 14760 1.100000 28.08600
14761 SI 14761 SI SI1 14761 1.100000 28.08600
14762 SI 14762 SI SI1 14762 1.100000 28.08600
14763 SI 14763 SI SI1 14763 1.100000 28.08600
14764 SI 14764 SI SI1 14764 1.100000 28.08600
14765 SI 14765 SI SI1 14765 1.100000 28.08600
14766 SI 14766 SI SI1 14766 1.100000 28.08600
14767 SI 14767 SI SI1 14767 1.100000 28.08600
14768 SI 14768 SI SI1 14768 1.100000 28.08600
14769 SI 14769 SI SI1 14769 1.100000 28.08600
14770 SI 14770 SI SI1 14770 1.100000 28.08600
14771 SI 14771 SI SI1 14771 1.100000 28.08600
14772 SI 14772 SI SI1 14772 1.100000 28.08600
14773 SI 14773 SI SI1 14773 1.100000 28.08600
14774 SI 14774 SI SI1 14774 1.100000 28.08600
14775 SI 14775 SI SI1 14775 1.100000 28.08600
14776 SI 14776 SI SI1 14776 1.100000 28.08600
14777 SI 14777 SI SI1 14777 1.100000 28.08600
14778 SI 14778 SI SI1 14778 1.100000 28.08600
14779 SI 14779 SI SI1 14779 1.100000 28.08600
14780 SI 14780 SI SI1 14780 1.100000 28.08600
14781 SI 14781 SI SI1 14781 1.100000 28.08600
14782 SI 14782 SI SI1 14782 1.100000 28.08600
14783 SI 14783 SI SI1 14783 1.100000 28.08600
14784 SI 14784 SI SI1 14784 1.100000 28.08600
14785 SI 14785 SI SI1 14785 1.100000 28.08600
14786 SI 14786 SI SI1 14786 1.100000 28.08600
14787 SI 14787 SI SI1 14787 1.100000 28.08600
14788 SI 14788 SI SI1 14788 1.100000 28.08600
14789 SI 14789 SI SI1 14789 1.100000 28.08600
14790 SI 14790 SI SI1 14790 1.100000 28.08600
14791 SI 14791 SI SI1 14791 1.100000 28.08600
14792 SI 14792 SI SI1 14792 1.100000 28.08600
14793 SI 14793 SI SI1 14793 1.100000 28.08600
14794 SI 14794 SI SI1 14794 1.100000 28.08600
14795 SI 14795 SI SI1 14795 1.100000 28.08600
14796 SI 14796 SI SI1 14796 1.100000 28.08600
14797 SI 14797 SI SI1 14797 1.100000 28.08600
14798 SI 14798 SI SI1 14798 1.100000 28.08600
14799 SI 14799 SI SI1 14799 1.100000 28.08600
14800 SI 14800 SI SI1 14800 1.100000 28.08600
14801 SI 14801 SI SI1 14801 1.100000 28.08600
14802 SI 14802 SI SI1 14802 1.100000 28.08600
14803 SI 14803 SI SI1 14803 1.100000 28.08600
14804 SI 14804 SI SI1 14804 1.100000 28.08600
14805 SI 14805 SI SI1 14805 1.100000 28.08600
14806 SI 14806 SI SI1 14806 1.100000 28.08600
14807 SI 14807 SI SI1 14807 1.100000 28.08600
14808 SI 14808 SI SI1 14808 1.100000 28.08600
14809 SI 14809 SI SI1 14809 1.100000 28.08600
14810 SI 14810 SI SI1 14810 1.100000 28.08600
14811 SI 14811 SI SI1 14811 1.100000 28.08600
14812 SI 14812 SI SI1 14812 1.100000 28.08600
14813 SI 14813 SI SI1 14813 1.100000 28.08600
14814 SI 14814 SI SI1 14814 1.100000 28.08600
14815 SI 14815 SI SI1 14815 1.100000 28.08600
14816 SI 14816 SI SI1 14816 1.100000 28.08600
14817 SI 14817 SI SI1 14817 1.100000 28.08600
14818 SI 14818 SI SI1 14818 1.100000 28.08600
14819 SI 14819 SI SI1 14819 1.100000 28.08600
14820 SI 14820 SI SI1 14820 1.100000 28.08600
14821 SI 14821 SI SI1 14821 1.100000 28.08600
14822 SI 14822 SI SI1 14822 1.100000 28.08600
14823 SI 14823 SI SI1 14823 1.100000 28.08600
14824 SI 14824 SI SI1 14824 1.100000 28.08600
14825 SI 14825 SI SI1 14825 1.100000 28.08600
14826 SI 14826 SI SI1 14826 1.100000 28.08600
14827 SI 14827 SI SI1 14827 1.100000 28.08600
14828 SI 14828 SI SI1 14828 1.100000 28.08600
14829 SI 14829 SI SI1 14829 1.100000 28.08600
14830 SI 14830 SI SI1 14830 1.100000 28.08600
14831 SI 14831 SI SI1 14831 1.100000 28.08600
14832 SI 14832 SI SI1 14832 1.100000 28.08600
14833 SI 14833 SI SI1 14833 1.100000 28.08600
14834 SI 14834 SI SI1 14834 1.100000 28.08600
14835 SI 14835 SI SI1 14835 1.100000 28.08600
14836 SI 14836 SI SI1 14836 1.100000 28.08600
14837 SI 14837 SI SI1 14837 1.100000 28.08600
14838 SI 14838 SI SI1 14838 1.100000 28.08600
14839 SI 14839 SI SI1 14839 1.100000 28.08600
14840 SI 14840 SI SI1 14840 1.100000 28.08600
14841 SI 14841 SI SI1 14841 1.100000 28.08600
14842 SI 14842 SI SI1 14842 1.100000 28.08600
14843 SI 14843 SI SI1 14843 1.100000 28.08600
14844 SI 14844 SI SI1 14844 1.100000 28.08600
14845 SI 14845 SI SI1 14845 1.100000 28.08600
14846 SI 14846 SI SI1 14846 1.100000 28.08600
14847 SI 14847 SI SI1 14847 1.100000 28.08600
14848 SI 14848 SI SI1 14848 1.100000 28.08600
14849 SI 14849 SI SI1 14849 1.100000 28.08600
14850 SI 14850 SI SI1 14850 1.100000 28.08600
14851 SI 14851 SI SI1 14851 1.100000 28.08600
14852 SI 14852 SI SI1 14852 1.100000 28.08600
14853 SI 14853 SI SI1 14853 1.100000 28.08600
14854 SI 14854 SI SI1 14854 1.100000 28.08600
14855 SI 14855 SI SI1 14855 1.100000 28.08600
14856 SI 14856 SI SI1 14856 1.100000 28.08600
14857 SI 14857 SI SI1 14857 1.100000 28.08600
14858 SI 14858 SI SI1 14858 1.100000 28.08600
14859 SI 14859 SI SI1 14859 1.100000 28.08600
14860 SI 14860 SI SI1 14860 1.100000 28.08600
14861 SI 14861 SI SI1 14861 1.100000 28.08600
14862 SI 14862 SI SI1 14862 1.100000 28.08600
14863 SI 14863 SI SI1 14863 1.100000 28.08600
14864 SI 14864 SI SI1 14864 1.100000 28.08600
14865 SI 14865 SI SI1 14865 1.100000 28.08600
14866 SI 14866 SI SI1 14866 1.100000 28.08600
14867 SI 14867 SI SI1 14867 1.100000 28.08600
14868 SI 14868 SI SI1 14868 1.100000 28.08600
14869 SI 14869 SI SI1 14869 1.100000 28.08600
14870 SI 14870 SI SI1 14870 1.100000 28.08600
14871 SI 14871 SI SI1 14871 1.100000 28.08600
14872 SI 14872 SI SI1 14872 1.100000 28.08600
14873 SI 14873 SI SI1 14873 1.100000 28.08600
14874 SI 14874 SI SI1 14874 1.100000 28.08600
14875 SI 14875 SI SI1 14875 1.100000 28.08600
14876 SI 14876 SI SI1 14876 1.100000 28.08600
14877 SI 14877 SI SI1 14877 1.100000 28.08600
14878 SI 14878 SI SI1 14878 1.100000 28.08600
14879 SI 14879 SI SI1 14879 1.100000 28.08600
14880 SI 14880 SI SI1 14880 1.100000 28.08600
14881 SI 14881 SI SI1 14881 1.100000 28.08600
14882 SI 14882 SI SI1 14882 1.100000 28.08600
14883 SI 14883 SI SI1 14883 1.100000 28.08600
14884 SI 14884 SI SI1 14884 1.100000 28.08600
14885 SI 14885 SI SI1 14885 1.100000 28.08600
14886 SI 14886 SI SI1 14886 1.100000 28.08600
14887 SI 14887 SI SI1 14887 1.100000 28.08600
14888 SI 14888 SI SI1 14888 1.100000 28.08600
14889 SI 14889 SI SI1 14889 1.100000 28.08600
14890 SI 14890 SI SI1 14890 1.100000 28.08600
14891 SI 14891 SI SI1 14891 1.100000 28.08600
14892 SI 14892 SI SI1 14892 1.100000 28.08600
14893 SI 14893 SI SI1 14893 1.100000 28.08600
14894 SI 14894 SI SI1 14894 1.100000 28.08600
14895 SI 14895 SI SI1 14895 1.100000 28.08600
14896 SI 14896 SI SI1 14896 1.100000 28.08600
14897 SI 14897 SI SI1 14897 1.100000 28.08600
14898 SI 14898 SI SI1 14898 1.100000 28.08600
14899 SI 14899 SI SI1 14899 1.100000 28.08600
14900 SI 14900 SI SI1 14900 1.100000 28.08600
14901 SI 14901 SI SI1 14901 1.100000 28.08600
14902 SI 14902 SI SI1 14902 1.100000 28.08600
14903 SI 14903 SI SI1 14903 1.100000 28.08600
14904 SI 14904 SI SI1 14904 1.100000 28.08600
14905 SI 14905 SI SI1 14905 1.100000 28.08600
14906 SI 14906 SI SI1 14906 1.100000 28.08600
14907 SI 14907 SI SI1 14907 1.100000 28.08600
14908 SI 14908 SI SI1 14908 1.100000 28.08600
14909 SI 14909 SI SI1 14909 1.100000 28.08600
14910 SI 14910 SI SI1 14910 1.100000 28.08600
14911 SI 14911 SI SI1 14911 1.100000 28.08600
14912 SI 14912 SI SI1 14912 1.100000 28.08600
14913 SI 14913 SI SI1 14913 1.100000 28.08600
14914 SI 14914 SI SI1 14914 1.100000 28.08600
14915 SI 14915 SI SI1 14915 1.100000 28.08600
14916 SI 14916 SI SI1 14916 1.100000 28.08600
14917 SI 14917 SI SI1 14917 1.100000 28.08600
14918 SI 14918 SI SI1 14918 1.100000 28.08600
14919 SI 14919 SI SI1 14919 1.100000 28.08600
14920 SI 14920 SI SI1 14920 1.100000 28.08600
14921 SI 14921 SI SI1 14921 1.100000 28.08600
14922 SI 14922 SI SI1 14922 1.100000 28.08600
14923 SI 14923 SI SI1 14923 1.100000 28.08600
14924 SI 14924 SI SI1 14924 1.100000 28.08600
14925 SI 14925 SI SI1 14925 1.100000 28.08600
14926 SI 14926 SI SI1 14926 1.100000 28.08600
14927 SI 14927 SI SI1 14927 1.100000 28.08600
14928 SI 14928 SI SI1 14928 1.100000 28.08600
14929 SI 14929 SI SI1 14929 1.100000 28.08600
14930 SI 14930 SI SI1 14930 1.100000 28.08600
14931 SI 14931 SI SI1 14931 1.100000 28.08600
14932 SI 14932 SI SI1 14932 1.100000 28.08600
14933 SI 14933 SI SI1 14933 1.100000 28.08600
14934 SI 14934 SI SI1 14934 1.100000 28.08600
14935 SI 14935 SI SI1 14935 1.100000 28.08600
14936 SI 14936 SI SI1 14936 1.100000 28.08600
14937 SI 14937 SI SI1 14937 1.100000 28.08600
14938 SI 14938 SI SI1 14938 1.100000 28.08600
14939 SI 14939 SI SI1 14939 1.100000 28.08600
14940 SI 14940 SI SI1 14940 1.100000 28.08600
14941 SI 14941 SI SI1 14941 1.100000 28.08600
14942 SI 14942 SI SI1 14942 1.100000 28.08600
14943 SI 14943 SI SI1 14943 1.100000 28.08600
14944 SI 14944 SI SI1 14944 1.100000 28.08600
14945 SI 14945 SI SI1 14945 1.100000 28.08600
14946 SI 14946 SI SI1 14946 1.100000 28.08600
14947 SI 14947 SI SI1 14947 1.100000 28.08600
14948 SI 14948 SI SI1 14948 1.100000 28.08600
14949 SI 14949 SI SI1 14949 1.100000 28.08600
14950 SI 14950 SI SI1 14950 1.100000 28.08600
14951 SI 14951 SI SI1 14951 1.100000 28.08600
14952 SI 14952 SI SI1 14952 1.100000 28.08600
14953 SI 14953 SI SI1 14953 1.100000 28.08600
14954 SI 14954 SI SI1 14954 1.100000 28.08600
14955 SI 14955 SI SI1 14955 1.100000 28.08600
14956 SI 14956 SI SI1 14956 1.100000 28.08600
14957 SI 14957 SI SI1 14957 1.100000 28.08600
14958 SI 14958 SI SI1 14958 1.100000 28.08600
14959 SI 14959 SI SI1 14959 1.100000 28.08600
14960 SI 14960 SI SI1 14960 1.100000 28.08600
14961 SI 14961 SI SI1 14961 1.100000 28.08600
14962 SI 14962 SI SI1 14962 1.100000 28.08600
14963 SI 14963 SI SI1 14963 1.100000 28.08600
14964 SI 14964 SI SI1 14964 1.100000 28.08600
14965 SI 14965 SI SI1 14965 1.100000 28.08600
14966 SI 14966 SI SI1 14966 1.100000 28.08600
14967 SI 14967 SI SI1 14967 1.100000 28.08600
14968 SI 14968 SI SI1 14968 1.100000 28.08600
14969 SI 14969 SI SI1 14969 1.100000 28.08600
14970 SI 14970 SI SI1 14970 1.100000 28.08600
14971 SI 14971 SI SI1 14971 1.100000 28.08600
14972 SI 14972 SI SI1 14972 1.100000 28.08600
14973 SI 14973 SI SI1 14973 1.100000 28.08600
14974 SI 14974 SI SI1 14974 1.100000 28.08600
14975 SI 14975 SI SI1 14975 1.100000 28.08600
14976 SI 14976 SI SI1 14976 1.100000 28.08600
14977 SI 14977 SI SI1 14977 1.100000 28.08600
14978 SI 14978 SI SI1 14978 1.100000 28.08600
14979 SI 14979 SI SI1 14979 1.100000 28.08600
14980 SI 14980 SI SI1 14980 1.100000 28.08600
14981 SI 14981 SI SI1 14981 1.100000 28.08600
14982 SI 14982 SI SI1 14982 1.100000 28.08600
14983 SI 14983 SI SI1 14983 1.100000 28.08600
14984 SI 14984 SI SI1 14984 1.100000 28.08600
14985 SI 14985 SI SI1 14985 1.100000 28.08600
14986 SI 14986 SI SI1 14986 1.100000 28.08600
14987 SI 14987 SI SI1 14987 1.100000 28.08600
14988 SI 14988 SI SI1 14988 1.100000 28.08600
14989 SI 14989 SI SI1 14989 1.100000 28.08600
14990 SI 14990 SI SI1 14990 1.100000 28.08600
14991 SI 14991 SI SI1 14991 1.100000 28.08600
14992 SI 14992 SI SI1 14992 1.100000 28.08600
14993 SI 14993 SI SI1 14993 1.100000 28.08600
14994 SI 14994 SI SI1 14994 1.100000 28.08600
14995 SI 14995 SI SI1 14995 1.100000 28.08600
14996 SI 14996 SI SI1 14996 1.100000 28.08600
14997 SI 14997 SI SI1 14997 1.100000 28.08600
14998 SI 14998 SI SI1 14998 1.100000 28.08600
14999 SI 14999 SI SI1 14999 1.100000 28.08600
15000 SI 15000 SI SI1 15000 1.100000 28.08600
15001 SI 15001 SI SI1 15001 1.100000 28.08600
15002 SI 15002 SI SI1 15002 1.100000 28.08600
15003 SI 15003 SI SI1 15003 1.100000 28.08600
15004 SI 15004 SI SI1 15004 1.100000 28.08600
15005 SI 15005 SI SI1 15005 1.100000 28.08600
15006 SI 15006 SI SI1 15006 1.100000 28.08600
15007 SI 15007 SI SI1 15007 1.100000 28.08600
15008 SI 15008 SI SI1 15008 1.100000 28.08600
15009 SI 15009 SI SI1 15009 1.100000 28.08600
15010 SI 15010 SI SI1 15010 1.100000 28.08600
15011 SI 15011 SI SI1 15011 1.100000 28.08600
15012 SI 15012 SI SI1 15012 1.100000 28.08600
15013 SI 15013 SI SI1 15013 1.100000 28.08600
15014 SI 15014 SI SI1 15014 1.100000 28.08600
15015 SI 15015 SI SI1 15015 1.100000 28.08600
15016 SI 15016 SI SI1 15016 1.100000 28.08600
15017 SI 15017 SI SI1 15017 1.100000 28.08600
15018 SI 15018 SI SI1 15018 1.100000 28.08600
15019 SI 15019 SI SI1 15019 1.100000 28.08600
15020 SI 15020 SI SI1 15020 1.100000 28.08600
15021 SI 15021 SI SI1 15021 1.100000 28.08600
15022 SI 15022 SI SI1 15022 1.100000 28.08600
15023 SI 15023 SI SI1 15023 1.100000 28.08600
15024 SI 15024 SI SI1 15024 1.100000 28.08600
15025 SI 15025 SI SI1 15025 1.100000 28.08600
15026 SI 15026 SI SI1 15026 1.100000 28.08600
15027 SI 15027 SI SI1 15027 1.100000 28.08600
15028 SI 15028 SI SI1 15028 1.100000 28.08600
15029 SI 15029 SI SI1 15029 1.100000 28.08600
15030 SI 15030 SI SI1 15030 1.100000 28.08600
15031 SI 15031 SI SI1 15031 1.100000 28.08600
15032 SI 15032 SI SI1 15032 1.100000 28.08600
15033 SI 15033 SI SI1 15033 1.100000 28.08600
15034 SI 15034 SI SI1 15034 1.100000 28.08600
15035 SI 15035 SI SI1 15035 1.100000 28.08600
15036 SI 15036 SI SI1 15036 1.100000 28.08600
15037 SI 15037 SI SI1 15037 1.100000 28.08600
15038 SI 15038 SI SI1 15038 1.100000 28.08600
15039 SI 15039 SI SI1 15039 1.100000 28.08600
15040 SI 15040 SI SI1 15040 1.100000 28.08600
15041 SI 15041 SI SI1 15041 1.100000 28.08600
15042 SI 15042 SI SI1 15042 1.100000 28.08600
15043 SI 15043 SI SI1 15043 1.100000 28.08600
15044 SI 15044 SI SI1 15044 1.100000 28.08600
15045 SI 15045 SI SI1 15045 1.100000 28.08600
15046 SI 15046 SI SI1 15046 1.100000 28.08600
15047 SI 15047 SI SI1 15047 1.100000 28.08600
15048 SI 15048 SI SI1 15048 1.100000 28.08600
15049 SI 15049 SI SI1 15049 1.100000 28.08600
15050 SI 15050 SI SI1 15050 1.100000 28.08600
15051 SI 15051 SI SI1 15051 1.100000 28.08600
15052 SI 15052 SI SI1 15052 1.100000 28.08600
15053 SI 15053 SI SI1 15053 1.100000 28.08600
15054 SI 15054 SI SI1 15054 1.100000 28.08600
15055 SI 15055 SI SI1 15055 1.100000 28.08600
15056 SI 15056 SI SI1 15056 1.100000 28.08600
15057 SI 15057 SI SI1 15057 1.100000 28.08600
15058 SI 15058 SI SI1 15058 1.100000 28.08600
15059 SI 15059 SI SI1 15059 1.100000 28.08600
15060 SI 15060 SI SI1 15060 1.100000 28.08600
15061 SI 15061 SI SI1 15061 1.100000 28.08600
15062 SI 15062 SI SI1 15062 1.100000 28.08600
15063 SI 15063 SI SI1 15063 1.100000 28.08600
15064 SI 15064 SI SI1 15064 1.100000 28.08600
15065 SI 15065 SI SI1 15065 1.100000 28.08600
15066 SI 15066 SI SI1 15066 1.100000 28.08600
15067 SI 15067 SI SI1 15067 1.100000 28.08600
15068 SI 15068 SI SI1 15068 1.100000 28.08600
15069 SI 15069 SI SI1 15069 1.100000 28.08600
15070 SI 15070 SI SI1 15070 1.100000 28.08600
15071 SI 15071 SI SI1 15071 1.100000 28.08600
15072 SI 15072 SI SI1 15072 1.100000 28.08600
15073 SI 15073 SI SI1 15073 1.100000 28.08600
15074 SI 15074 SI SI1 15074 1.100000 28.08600
15075 SI 15075 SI SI1 15075 1.100000 28.08600
15076 SI 15076 SI SI1 15076 1.100000 28.08600
15077 SI 15077 SI SI1 15077 1.100000 28.08600
15078 SI 15078 SI SI1 15078 1.100000 28.08600
15079 SI 15079 SI SI1 15079 1.100000 28.08600
15080 SI 15080 SI SI1 15080 1.100000 28.08600
15081 SI 15081 SI SI1 15081 1.100000 28.08600
15082 SI 15082 SI SI1 15082 1.100000 28.08600
15083 SI 15083 SI SI1 15083 1.100000 28.08600
15084 SI 15084 SI SI1 15084 1.100000 28.08600
15085 SI 15085 SI SI1 15085 1.100000 28.08600
15086 SI 15086 SI SI1 15086 1.100000 28.08600
15087 SI 15087 SI SI1 15087 1.100000 28.08600
15088 SI 15088 SI SI1 15088 1.100000 28.08600
15089 SI 15089 SI SI1 15089 1.100000 28.08600
15090 SI 15090 SI SI1 15090 1.100000 28.08600
15091 SI 15091 SI SI1 15091 1.100000 28.08600
15092 SI 15092 SI SI1 15092 1.100000 28.08600
15093 SI 15093 SI SI1 15093 1.100000 28.08600
15094 SI 15094 SI SI1 15094 1.100000 28.08600
15095 SI 15095 SI SI1 15095 1.100000 28.08600
15096 SI 15096 SI SI1 15096 1.100000 28.08600
15097 SI 15097 SI SI1 15097 1.100000 28.08600
15098 SI 15098 SI SI1 15098 1.100000 28.08600
15099 SI 15099 SI SI1 15099 1.100000 28.08600
15100 SI 15100 SI SI1 15100 1.100000 28.08600
15101 SI 15101 SI SI1 15101 1.100000 28.08600
15102 SI 15102 SI SI1 15102 1.100000 28.08600
15103 SI 15103 SI SI1 15103 1.100000 28.08600
15104 SI 15104 SI SI1 15104 1.100000 28.08600
15105 SI 15105 SI SI1 15105 1.100000 28.08600
15106 SI 15106 SI SI1 15106 1.100000 28.08600
15107 SI 15107 SI SI1 15107 1.100000 28.08600
15108 SI 15108 SI SI1 15108 1.100000 28.08600
15109 SI 15109 SI SI1 15109 1.100000 28.08600
15110 SI 15110 SI SI1 15110 1.100000 28.08600
15111 SI 15111 SI SI1 15111 1.100000 28.08600
15112 SI 15112 SI SI1 15112 1.100000 28.08600
15113 SI 15113 SI SI1 15113 1.100000 28.08600
15114 SI 15114 SI SI1 15114 1.100000 28.08600
15115 SI 15115 SI SI1 15115 1.100000 28.08600
15116 SI 15116 SI SI1 15116 1.100000 28.08600
15117 SI 15117 SI SI1 15117 1.100000 28.08600
15118 SI 15118 SI SI1 15118 1.100000 28.08600
15119 SI 15119 SI SI1 15119 1.100000 28.08600
15120 SI 15120 SI SI1 15120 1.100000 28.08600
15121 SI 15121 SI SI1 15121 1.100000 28.08600
15122 SI 15122 SI SI1 15122 1.100000 28.08600
15123 SI 15123 SI SI1 15123 1.100000 28.08600
15124 SI 15124 SI SI1 15124 1.100000 28.08600
15125 SI 15125 SI SI1 15125 1.100000 28.08600
15126 SI 15126 SI SI1 15126 1.100000 28.08600
15127 SI 15127 SI SI1 15127 1.100000 28.08600
15128 SI 15128 SI SI1 15128 1.100000 28.08600
15129 SI 15129 SI SI1 15129 1.100000 28.08600
15130 SI 15130 SI SI1 15130 1.100000 28.08600
15131 SI 15131 SI SI1 15131 1.100000 28.08600
15132 SI 15132 SI SI1 15132 1.100000 28.08600
15133 SI 15133 SI SI1 15133 1.100000 28.08600
15134 SI 15134 SI SI1 15134 1.100000 28.08600
15135 SI 15135 SI SI1 15135 1.100000 28.08600
15136 SI 15136 SI SI1 15136 1.100000 28.08600
15137 SI 15137 SI SI1 15137 1.100000 28.08600
15138 SI 15138 SI SI1 15138 1.100000 28.08600
15139 SI 15139 SI SI1 15139 1.100000 28.08600
15140 SI 15140 SI SI1 15140 1.100000 28.08600
15141 SI 15141 SI SI1 15141 1.100000 28.08600
15142 SI 15142 SI SI1 15142 1.100000 28.08600
15143 SI 15143 SI SI1 15143 1.100000 28.08600
15144 SI 15144 SI SI1 15144 1.100000 28.08600
15145 SI 15145 SI SI1 15145 1.100000 28.08600
15146 SI 15146 SI SI1 15146 1.100000 28.08600
15147 SI 15147 SI SI1 15147 1.100000 28.08600
15148 SI 15148 SI SI1 15148 1.100000 28.08600
15149 SI 15149 SI SI1 15149 1.100000 28.08600
15150 SI 15150 SI SI1 15150 1.100000 28.08600
15151 SI 15151 SI SI1 15151 1.100000 28.08600
15152 SI 15152 SI SI1 15152 1.100000 28.08600
15153 SI 15153 SI SI1 15153 1.100000 28.08600
15154 SI 15154 SI SI1 15154 1.100000 28.08600
15155 SI 15155 SI SI1 15155 1.100000 28.08600
15156 SI 15156 SI SI1 15156 1.100000 28.08600
15157 SI 15157 SI SI1 15157 1.100000 28.08600
15158 SI 15158 SI SI1 15158 1.100000 28.08600
15159 SI 15159 SI SI1 15159 1.100000 28.08600
15160 SI 15160 SI SI1 15160 1.100000 28.08600
15161 SI 15161 SI SI1 15161 1.100000 28.08600
15162 SI 15162 SI SI1 15162 1.100000 28.08600
15163 SI 15163 SI SI1 15163 1.100000 28.08600
15164 SI 15164 SI SI1 15164 1.100000 28.08600
15165 SI 15165 SI SI1 15165 1.100000 28.08600
15166 SI 15166 SI SI1 15166 1.100000 28.08600
15167 SI 15167 SI SI1 15167 1.100000 28.08600
15168 SI 15168 SI SI1 15168 1.100000 28.08600
15169 SI 15169 SI SI1 15169 1.100000 28.08600
15170 SI 15170 SI SI1 15170 1.100000 28.08600
15171 SI 15171 SI SI1 15171 1.100000 28.08600
15172 SI 15172 SI SI1 15172 1.100000 28.08600
15173 SI 15173 SI SI1 15173 1.100000 28.08600
15174 SI 15174 SI SI1 15174 1.100000 28.08600
15175 SI 15175 SI SI1 15175 1.100000 28.08600
15176 SI 15176 SI SI1 15176 1.100000 28.08600
15177 SI 15177 SI SI1 15177 1.100000 28.08600
15178 SI 15178 SI SI1 15178 1.100000 28.08600
15179 SI 15179 SI SI1 15179 1.100000 28.08600
15180 SI 15180 SI SI1 15180 1.100000 28.08600
15181 SI 15181 SI SI1 15181 1.100000 28.08600
15182 SI 15182 SI SI1 15182 1.100000 28.08600
15183 SI 15183 SI SI1 15183 1.100000 28.08600
15184 SI 15184 SI SI1 15184 1.100000 28.08600
15185 SI 15185 SI SI1 15185 1.100000 28.08600
15186 SI 15186 SI SI1 15186 1.100000 28.08600
15187 SI 15187 SI SI1 15187 1.100000 28.08600
15188 SI 15188 SI SI1 15188 1.100000 28.08600
15189 SI 15189 SI SI1 15189 1.100000 28.08600
15190 SI 15190 SI SI1 15190 1.100000 28.08600
15191 SI 15191 SI SI1 15191 1.100000 28.08600
15192 SI 15192 SI SI1 15192 1.100000 28.08600
15193 SI 15193 SI SI1 15193 1.100000 28.08600
15194 SI 15194 SI SI1 15194 1.100000 28.08600
15195 SI 15195 SI SI1 15195 1.100000 28.08600
15196 SI 15196 SI SI1 15196 1.100000 28.08600
15197 SI 15197 SI SI1 15197 1.100000 28.08600
15198 SI 15198 SI SI1 15198 1.100000 28.08600
15199 SI 15199 SI SI1 15199 1.100000 28.08600
15200 SI 15200 SI SI1 15200 1.100000 28.08600
15201 SI 15201 SI SI1 15201 1.100000 28.08600
15202 SI 15202 SI SI1 15202 1.100000 28.08600
15203 SI 15203 SI SI1 15203 1.100000 28.08600
15204 SI 15204 SI SI1 15204 1.100000 28.08600
15205 SI 15205 SI SI1 15205 1.100000 28.08600
15206 SI 15206 SI SI1 15206 1.100000 28.08600
15207 SI 15207 SI SI1 15207 1.100000 28.08600
15208 SI 15208 SI SI1 15208 1.100000 28.08600
15209 SI 15209 SI SI1 15209 1.100000 28.08600
15210 SI 15210 SI SI1 15210 1.100000 28.08600
15211 SI 15211 SI SI1 15211 1.100000 28.08600
15212 SI 15212 SI SI1 15212 1.100000 28.08600
15213 SI 15213 SI SI1 15213 1.100000 28.08600
15214 SI 15214 SI SI1 15214 1.100000 28.08600
15215 SI 15215 SI SI1 15215 1.100000 28.08600
15216 SI 15216 SI SI1 15216 1.100000 28.08600
15217 SI 15217 SI SI1 15217 1.100000 28.08600
15218 SI 15218 SI SI1 15218 1.100000 28.08600
15219 SI 15219 SI SI1 15219 1.100000 28.08600
15220 SI 15220 SI SI1 15220 1.100000 28.08600
15221 SI 15221 SI SI1 15221 1.100000 28.08600
15222 SI 15222 SI SI1 15222 1.100000 28.08600
15223 SI 15223 SI SI1 15223 1.100000 28.08600
15224 SI 15224 SI SI1 15224 1.100000 28.08600
15225 SI 15225 SI SI1 15225 1.100000 28.08600
15226 SI 15226 SI SI1 15226 1.100000 28.08600
15227 SI 15227 SI SI1 15227 1.100000 28.08600
15228 SI 15228 SI SI1 15228 1.100000 28.08600
15229 SI 15229 SI SI1 15229 1.100000 28.08600
15230 SI 15230 SI SI1 15230 1.100000 28.08600
15231 SI 15231 SI SI1 15231 1.100000 28.08600
15232 SI 15232 SI SI1 15232 1.100000 28.08600
15233 SI 15233 SI SI1 15233 1.100000 28.08600
15234 SI 15234 SI SI1 15234 1.100000 28.08600
15235 SI 15235 SI SI1 15235 1.100000 28.08600
15236 SI 15236 SI SI1 15236 1.100000 28.08600
15237 SI 15237 SI SI1 15237 1.100000 28.08600
15238 SI 15238 SI SI1 15238 1.100000 28.08600
15239 SI 15239 SI SI1 15239 1.100000 28.08600
15240 SI 15240 SI SI1 15240 1.100000 28.08600
15241 SI 15241 SI SI1 15241 1.100000 28.08600
15242 SI 15242 SI SI1 15242 1.100000 28.08600
15243 SI 15243 SI SI1 15243 1.100000 28.08600
15244 SI 15244 SI SI1 15244 1.100000 28.08600
15245 SI 15245 SI SI1 15245 1.100000 28.08600
15246 SI 15246 SI SI1 15246 1.100000 28.08600
15247 SI 15247 SI SI1 15247 1.100000 28.08600
15248 SI 15248 SI SI1 15248 1.100000 28.08600
15249 SI 15249 SI SI1 15249 1.100000 28.08600
15250 SI 15250 SI SI1 15250 1.100000 28.08600
15251 SI 15251 SI SI1 15251 1.100000 28.08600
15252 SI 15252 SI SI1 15252 1.100000 28.08600
15253 SI 15253 SI SI1 15253 1.100000 28.08600
15254 SI 15254 SI SI1 15254 1.100000 28.08600
15255 SI 15255 SI SI1 15255 1.100000 28.08600
15256 SI 15256 SI SI1 15256 1.100000 28.08600
15257 SI 15257 SI SI1 15257 1.100000 28.08600
15258 SI 15258 SI SI1 15258 1.100000 28.08600
15259 SI 15259 SI SI1 15259 1.100000 28.08600
15260 SI 15260 SI SI1 15260 1.100000 28.08600
15261 SI 15261 SI SI1 15261 1.100000 28.08600
15262 SI 15262 SI SI1 15262 1.100000 28.08600
15263 SI 15263 SI SI1 15263 1.100000 28.08600
15264 SI 15264 SI SI1 15264 1.100000 28.08600
15265 SI 15265 SI SI1 15265 1.100000 28.08600
15266 SI 15266 SI SI1 15266 1.100000 28.08600
15267 SI 15267 SI SI1 15267 1.100000 28.08600
15268 SI 15268 SI SI1 15268 1.100000 28.08600
15269 SI 15269 SI SI1 15269 1.100000 28.08600
15270 SI 15270 SI SI1 15270 1.100000 28.08600
15271 SI 15271 SI SI1 15271 1.100000 28.08600
15272 SI 15272 SI SI1 15272 1.100000 28.08600
15273 SI 15273 SI SI1 15273 1.100000 28.08600
15274 SI 15274 SI SI1 15274 1.100000 28.08600
15275 SI 15275 SI SI1 15275 1.100000 28.08600
15276 SI 15276 SI SI1 15276 1.100000 28.08600
15277 SI 15277 SI SI1 15277 1.100000 28.08600
15278 SI 15278 SI SI1 15278 1.100000 28.08600
15279 SI 15279 SI SI1 15279 1.100000 28.08600
15280 SI 15280 SI SI1 15280 1.100000 28.08600
15281 SI 15281 SI SI1 15281 1.100000 28.08600
15282 SI 15282 SI SI1 15282 1.100000 28.08600
15283 SI 15283 SI SI1 15283 1.100000 28.08600
15284 SI 15284 SI SI1 15284 1.100000 28.08600
15285 SI 15285 SI SI1 15285 1.100000 28.08600
15286 SI 15286 SI SI1 15286 1.100000 28.08600
15287 SI 15287 SI SI1 15287 1.100000 28.08600
15288 SI 15288 SI SI1 15288 1.100000 28.08600
15289 SI 15289 SI SI1 15289 1.100000 28.08600
15290 SI 15290 SI SI1 15290 1.100000 28.08600
15291 SI 15291 SI SI1 15291 1.100000 28.08600
15292 SI 15292 SI SI1 15292 1.100000 28.08600
15293 SI 15293 SI SI1 15293 1.100000 28.08600
15294 SI 15294 SI SI1 15294 1.100000 28.08600
15295 SI 15295 SI SI1 15295 1.100000 28.08600
15296 SI 15296 SI SI1 15296 1.100000 28.08600
15297 SI 15297 SI SI1 15297 1.100000 28.08600
15298 SI 15298 SI SI1 15298 1.100000 28.08600
15299 SI 15299 SI SI1 15299 1.100000 28.08600
15300 SI 15300 SI SI1 15300 1.100000 28.08600
15301 SI 15301 SI SI1 15301 1.100000 28.08600
15302 SI 15302 SI SI1 15302 1.100000 28.08600
15303 SI 15303 SI SI1 15303 1.100000 28.08600
15304 SI 15304 SI SI1 15304 1.100000 28.08600
15305 SI 15305 SI SI1 15305 1.100000 28.08600
15306 SI 15306 SI SI1 15306 1.100000 28.08600
15307 SI 15307 SI SI1 15307 1.100000 28.08600
15308 SI 15308 SI SI1 15308 1.100000 28.08600
15309 SI 15309 SI SI1 15309 1.100000 28.08600
15310 SI 15310 SI SI1 15310 1.100000 28.08600
15311 SI 15311 SI SI1 15311 1.100000 28.08600
15312 SI 15312 SI SI1 15312 1.100000 28.08600
15313 SI 15313 SI SI1 15313 1.100000 28.08600
15314 SI 15314 SI SI1 15314 1.100000 28.08600
15315 SI 15315 SI SI1 15315 1.100000 28.08600
15316 SI 15316 SI SI1 15316 1.100000 28.08600
15317 SI 15317 SI SI1 15317 1.100000 28.08600
15318 SI 15318 SI SI1 15318 1.100000 28.08600
15319 SI 15319 SI SI1 15319 1.100000 28.08600
15320 SI 15320 SI SI1 15320 1.100000 28.08600
15321 SI 15321 SI SI1 15321 1.100000 28.08600
15322 SI 15322 SI SI1 15322 1.100000 28.08600
15323 SI 15323 SI SI1 15323 1.100000 28.08600
15324 SI 15324 SI SI1 15324 1.100000 28.08600
15325 SI 15325 SI SI1 15325 1.100000 28.08600
15326 SI 15326 SI SI1 15326 1.100000 28.08600
15327 SI 15327 SI SI1 15327 1.100000 28.08600
15328 SI 15328 SI SI1 15328 1.100000 28.08600
15329 SI 15329 SI SI1 15329 1.100000 28.08600
15330 SI 15330 SI SI1 15330 1.100000 28.08600
15331 SI 15331 SI SI1 15331 1.100000 28.08600
15332 SI 15332 SI SI1 15332 1.100000 28.08600
15333 SI 15333 SI SI1 15333 1.100000 28.08600
15334 SI 15334 SI SI1 15334 1.100000 28.08600
15335 SI 15335 SI SI1 15335 1.100000 28.08600
15336 SI 15336 SI SI1 15336 1.100000 28.08600
15337 SI 15337 SI SI1 15337 1.100000 28.08600
15338 SI 15338 SI SI1 15338 1.100000 28.08600
15339 SI 15339 SI SI1 15339 1.100000 28.08600
15340 SI 15340 SI SI1 15340 1.100000 28.08600
15341 SI 15341 SI SI1 15341 1.100000 28.08600
15342 SI 15342 SI SI1 15342 1.100000 28.08600
15343 SI 15343 SI SI1 15343 1.100000 28.08600
15344 SI 15344 SI SI1 15344 1.100000 28.08600
15345 SI 15345 SI SI1 15345 1.100000 28.08600
15346 SI 15346 SI SI1 15346 1.100000 28.08600
15347 SI 15347 SI SI1 15347 1.100000 28.08600
15348 SI 15348 SI SI1 15348 1.100000 28.08600
15349 SI 15349 SI SI1 15349 1.100000 28.08600
15350 SI 15350 SI SI1 15350 1.100000 28.08600
15351 SI 15351 SI SI1 15351 1.100000 28.08600
15352 SI 15352 SI SI1 15352 1.100000 28.08600
15353 SI 15353 SI SI1 15353 1.100000 28.08600
15354 SI 15354 SI SI1 15354 1.100000 28.08600
15355 SI 15355 SI SI1 15355 1.100000 28.08600
15356 SI 15356 SI SI1 15356 1.100000 28.08600
15357 SI 15357 SI SI1 15357 1.100000 28.08600
15358 SI 15358 SI SI1 15358 1.100000 28.08600
15359 SI 15359 SI SI1 15359 1.100000 28.08600
15360 SI 15360 SI SI1 15360 1.100000 28.08600
15361 SI 15361 SI SI1 15361 1.100000 28.08600
15362 SI 15362 SI SI1 15362 1.100000 28.08600
15363 SI 15363 SI SI1 15363 1.100000 28.08600
15364 SI 15364 SI SI1 15364 1.100000 28.08600
15365 SI 15365 SI SI1 15365 1.100000 28.08600
15366 SI 15366 SI SI1 15366 1.100000 28.08600
15367 SI 15367 SI SI1 15367 1.100000 28.08600
15368 SI 15368 SI SI1 15368 1.100000 28.08600
15369 SI 15369 SI SI1 15369 1.100000 28.08600
15370 SI 15370 SI SI1 15370 1.100000 28.08600
15371 SI 15371 SI SI1 15371 1.100000 28.08600
15372 SI 15372 SI SI1 15372 1.100000 28.08600
15373 SI 15373 SI SI1 15373 1.100000 28.08600
15374 SI 15374 SI SI1 15374 1.100000 28.08600
15375 SI 15375 SI SI1 15375 1.100000 28.08600
15376 SI 15376 SI SI1 15376 1.100000 28.08600
15377 SI 15377 SI SI1 15377 1.100000 28.08600
15378 SI 15378 SI SI1 15378 1.100000 28.08600
15379 SI 15379 SI SI1 15379 1.100000 28.08600
15380 SI 15380 SI SI1 15380 1.100000 28.08600
15381 SI 15381 SI SI1 15381 1.100000 28.08600
15382 SI 15382 SI SI1 15382 1.100000 28.08600
15383 SI 15383 SI SI1 15383 1.100000 28.08600
15384 SI 15384 SI SI1 15384 1.100000 28.08600
15385 SI 15385 SI SI1 15385 1.100000 28.08600
15386 SI 15386 SI SI1 15386 1.100000 28.08600
15387 SI 15387 SI SI1 15387 1.100000 28.08600
15388 SI 15388 SI SI1 15388 1.100000 28.08600
15389 SI 15389 SI SI1 15389 1.100000 28.08600
15390 SI 15390 SI SI1 15390 1.100000 28.08600
15391 SI 15391 SI SI1 15391 1.100000 28.08600
15392 SI 15392 SI SI1 15392 1.100000 28.08600
15393 SI 15393 SI SI1 15393 1.100000 28.08600
15394 SI 15394 SI SI1 15394 1.100000 28.08600
15395 SI 15395 SI SI1 15395 1.100000 28.08600
15396 SI 15396 SI SI1 15396 1.100000 28.08600
15397 SI 15397 SI SI1 15397 1.100000 28.08600
15398 SI 15398 SI SI1 15398 1.100000 28.08600
15399 SI 15399 SI SI1 15399 1.100000 28.08600
15400 SI 15400 SI SI1 15400 1.100000 28.08600
15401 SI 15401 SI SI1 15401 1.100000 28.08600
15402 SI 15402 SI SI1 15402 1.100000 28.08600
15403 SI 15403 SI SI1 15403 1.100000 28.08600
15404 SI 15404 SI SI1 15404 1.100000 28.08600
15405 SI 15405 SI SI1 15405 1.100000 28.08600
15406 SI 15406 SI SI1 15406 1.100000 28.08600
15407 SI 15407 SI SI1 15407 1.100000 28.08600
15408 SI 15408 SI SI1 15408 1.100000 28.08600
15409 SI 15409 SI SI1 15409 1.100000 28.08600
15410 SI 15410 SI SI1 15410 1.100000 28.08600
15411 SI 15411 SI SI1 15411 1.100000 28.08600
15412 SI 15412 SI SI1 15412 1.100000 28.08600
15413 SI 15413 SI SI1 15413 1.100000 28.08600
15414 SI 15414 SI SI1 15414 1.100000 28.08600
15415 SI 15415 SI SI1 15415 1.100000 28.08600
15416 SI 15416 SI SI1 15416 1.100000 28.08600
15417 SI 15417 SI SI1 15417 1.100000 28.08600
15418 SI 15418 SI SI1 15418 1.100000 28.08600
15419 SI 15419 SI SI1 15419 1.100000 28.08600
15420 SI 15420 SI SI1 15420 1.100000 28.08600
15421 SI 15421 SI SI1 15421 1.100000 28.08600
15422 SI 15422 SI SI1 15422 1.100000 28.08600
15423 SI 15423 SI SI1 15423 1.100000 28.08600
15424 SI 15424 SI SI1 15424 1.100000 28.08600
15425 SI 15425 SI SI1 15425 1.100000 28.08600
15426 SI 15426 SI SI1 15426 1.100000 28.08600
15427 SI 15427 SI SI1 15427 1.100000 28.08600
15428 SI 15428 SI SI1 15428 1.100000 28.08600
15429 SI 15429 SI SI1 15429 1.100000 28.08600
15430 SI 15430 SI SI1 15430 1.100000 28.08600
15431 SI 15431 SI SI1 15431 1.100000 28.08600
15432 SI 15432 SI SI1 15432 1.100000 28.08600
15433 SI 15433 SI SI1 15433 1.100000 28.08600
15434 SI 15434 SI SI1 15434 1.100000 28.08600
15435 SI 15435 SI SI1 15435 1.100000 28.08600
15436 SI 15436 SI SI1 15436 1.100000 28.08600
15437 SI 15437 SI SI1 15437 1.100000 28.08600
15438 SI 15438 SI SI1 15438 1.100000 28.08600
15439 SI 15439 SI SI1 15439 1.100000 28.08600
15440 SI 15440 SI SI1 15440 1.100000 28.08600
15441 SI 15441 SI SI1 15441 1.100000 28.08600
15442 SI 15442 SI SI1 15442 1.100000 28.08600
15443 SI 15443 SI SI1 15443 1.100000 28.08600
15444 SI 15444 SI SI1 15444 1.100000 28.08600
15445 SI 15445 SI SI1 15445 1.100000 28.08600
15446 SI 15446 SI SI1 15446 1.100000 28.08600
15447 SI 15447 SI SI1 15447 1.100000 28.08600
15448 SI 15448 SI SI1 15448 1.100000 28.08600
15449 SI 15449 SI SI1 15449 1.100000 28.08600
15450 SI 15450 SI SI1 15450 1.100000 28.08600
15451 SI 15451 SI SI1 15451 1.100000 28.08600
15452 SI 15452 SI SI1 15452 1.100000 28.08600
15453 SI 15453 SI SI1 15453 1.100000 28.08600
15454 SI 15454 SI SI1 15454 1.100000 28.08600
15455 SI 15455 SI SI1 15455 1.100000 28.08600
15456 SI 15456 SI SI1 15456 1.100000 28.08600
15457 SI 15457 SI SI1 15457 1.100000 28.08600
15458 SI 15458 SI SI1 15458 1.100000 28.08600
15459 SI 15459 SI SI1 15459 1.100000 28.08600
15460 SI 15460 SI SI1 15460 1.100000 28.08600
15461 SI 15461 SI SI1 15461 1.100000 28.08600
15462 SI 15462 SI SI1 15462 1.100000 28.08600
15463 SI 15463 SI SI1 15463 1.100000 28.08600
15464 SI 15464 SI SI1 15464 1.100000 28.08600
15465 SI 15465 SI SI1 15465 1.100000 28.08600
15466 SI 15466 SI SI1 15466 1.100000 28.08600
15467 SI 15467 SI SI1 15467 1.100000 28.08600
15468 SI 15468 SI SI1 15468 1.100000 28.08600
15469 SI 15469 SI SI1 15469 1.100000 28.08600
15470 SI 15470 SI SI1 15470 1.100000 28.08600
15471 SI 15471 SI SI1 15471 1.100000 28.08600
15472 SI 15472 SI SI1 15472 1.100000 28.08600
15473 SI 15473 SI SI1 15473 1.100000 28.08600
15474 SI 15474 SI SI1 15474 1.100000 28.08600
15475 SI 15475 SI SI1 15475 1.100000 28.08600
15476 SI 15476 SI SI1 15476 1.100000 28.08600
15477 SI 15477 SI SI1 15477 1.100000 28.08600
15478 SI 15478 SI SI1 15478 1.100000 28.08600
15479 SI 15479 SI SI1 15479 1.100000 28.08600
15480 SI 15480 SI SI1 15480 1.100000 28.08600
15481 SI 15481 SI SI1 15481 1.100000 28.08600
15482 SI 15482 SI SI1 15482 1.100000 28.08600
15483 SI 15483 SI SI1 15483 1.100000 28.08600
15484 SI 15484 SI SI1 15484 1.100000 28.08600
15485 SI 15485 SI SI1 15485 1.100000 28.08600
15486 SI 15486 SI SI1 15486 1.100000 28.08600
15487 SI 15487 SI SI1 15487 1.100000 28.08600
15488 SI 15488 SI SI1 15488 1.100000 28.08600
15489 SI 15489 SI SI1 15489 1.100000 28.08600
15490 SI 15490 SI SI1 15490 1.100000 28.08600
15491 SI 15491 SI SI1 15491 1.100000 28.08600
15492 SI 15492 SI SI1 15492 1.100000 28.08600
15493 SI 15493 SI SI1 15493 1.100000 28.08600
15494 SI 15494 SI SI1 15494 1.100000 28.08600
15495 SI 15495 SI SI1 15495 1.100000 28.08600
15496 SI 15496 SI SI1 15496 1.100000 28.08600
15497 SI 15497 SI SI1 15497 1.100000 28.08600
15498 SI 15498 SI SI1 15498 1.100000 28.08600
15499 SI 15499 SI SI1 15499 1.100000 28.08600
15500 SI 15500 SI SI1 15500 1.100000 28.08600
15501 SI 15501 SI SI1 15501 1.100000 28.08600
15502 SI 15502 SI SI1 15502 1.100000 28.08600
15503 SI 15503 SI SI1 15503 1.100000 28.08600
15504 SI 15504 SI SI1 15504 1.100000 28.08600
15505 SI 15505 SI SI1 15505 1.100000 28.08600
15506 SI 15506 SI SI1 15506 1.100000 28.08600
15507 SI 15507 SI SI1 15507 1.100000 28.08600
15508 SI 15508 SI SI1 15508 1.100000 28.08600
15509 SI 15509 SI SI1 15509 1.100000 28.08600
15510 SI 15510 SI SI1 15510 1.100000 28.08600
15511 SI 15511 SI SI1 15511 1.100000 28.08600
15512 SI 15512 SI SI1 15512 1.100000 28.08600
15513 SI 15513 SI SI1 15513 1.100000 28.08600
15514 SI 15514 SI SI1 15514 1.100000 28.08600
15515 SI 15515 SI SI1 15515 1.100000 28.08600
15516 SI 15516 SI SI1 15516 1.100000 28.08600
15517 SI 15517 SI SI1 15517 1.100000 28.08600
15518 SI 15518 SI SI1 15518 1.100000 28.08600
15519 SI 15519 SI SI1 15519 1.100000 28.08600
15520 SI 15520 SI SI1 15520 1.100000 28.08600
15521 SI 15521 SI SI1 15521 1.100000 28.08600
15522 SI 15522 SI SI1 15522 1.100000 28.08600
15523 SI 15523 SI SI1 15523 1.100000 28.08600
15524 SI 15524 SI SI1 15524 1.100000 28.08600
15525 SI 15525 SI SI1 15525 1.100000 28.08600
15526 SI 15526 SI SI1 15526 1.100000 28.08600
15527 SI 15527 SI SI1 15527 1.100000 28.08600
15528 SI 15528 SI SI1 15528 1.100000 28.08600
15529 SI 15529 SI SI1 15529 1.100000 28.08600
15530 SI 15530 SI SI1 15530 1.100000 28.08600
15531 SI 15531 SI SI1 15531 1.100000 28.08600
15532 SI 15532 SI SI1 15532 1.100000 28.08600
15533 SI 15533 SI SI1 15533 1.100000 28.08600
15534 SI 15534 SI SI1 15534 1.100000 28.08600
15535 SI 15535 SI SI1 15535 1.100000 28.08600
15536 SI 15536 SI SI1 15536 1.100000 28.08600
15537 SI 15537 SI SI1 15537 1.100000 28.08600
15538 SI 15538 SI SI1 15538 1.100000 28.08600
15539 SI 15539 SI SI1 15539 1.100000 28.08600
15540 SI 15540 SI SI1 15540 1.100000 28.08600
15541 SI 15541 SI SI1 15541 1.100000 28.08600
15542 SI 15542 SI SI1 15542 1.100000 28.08600
15543 SI 15543 SI SI1 15543 1.100000 28.08600
15544 SI 15544 SI SI1 15544 1.100000 28.08600
15545 SI 15545 SI SI1 15545 1.100000 28.08600
15546 SI 15546 SI SI1 15546 1.100000 28.08600
15547 SI 15547 SI SI1 15547 1.100000 28.08600
15548 SI 15548 SI SI1 15548 1.100000 28.08600
15549 SI 15549 SI SI1 15549 1.100000 28.08600
15550 SI 15550 SI SI1 15550 1.100000 28.08600
15551 SI 15551 SI SI1 15551 1.100000 28.08600
15552 SI 15552 SI SI1 15552 1.100000 28.08600
15553 SI 15553 SI SI1 15553 1.100000 28.08600
15554 SI 15554 SI SI1 15554 1.100000 28.08600
15555 SI 15555 SI SI1 15555 1.100000 28.08600
15556 SI 15556 SI SI1 15556 1.100000 28.08600
15557 SI 15557 SI SI1 15557 1.100000 28.08600
15558 SI 15558 SI SI1 15558 1.100000 28.08600
15559 SI 15559 SI SI1 15559 1.100000 28.08600
15560 SI 15560 SI SI1 15560 1.100000 28.08600
15561 SI 15561 SI SI1 15561 1.100000 28.08600
15562 SI 15562 SI SI1 15562 1.100000 28.08600
15563 SI 15563 SI SI1 15563 1.100000 28.08600
15564 SI 15564 SI SI1 15564 1.100000 28.08600
15565 SI 15565 SI SI1 15565 1.100000 28.08600
15566 SI 15566 SI SI1 15566 1.100000 28.08600
15567 SI 15567 SI SI1 15567 1.100000 28.08600
15568 SI 15568 SI SI1 15568 1.100000 28.08600
15569 SI 15569 SI SI1 15569 1.100000 28.08600
15570 SI 15570 SI SI1 15570 1.100000 28.08600
15571 SI 15571 SI SI1 15571 1.100000 28.08600
15572 SI 15572 SI SI1 15572 1.100000 28.08600
15573 SI 15573 SI SI1 15573 1.100000 28.08600
15574 SI 15574 SI SI1 15574 1.100000 28.08600
15575 SI 15575 SI SI1 15575 1.100000 28.08600
15576 SI 15576 SI SI1 15576 1.100000 28.08600
15577 SI 15577 SI SI1 15577 1.100000 28.08600
15578 SI 15578 SI SI1 15578 1.100000 28.08600
15579 SI 15579 SI SI1 15579 1.100000 28.08600
15580 SI 15580 SI SI1 15580 1.100000 28.08600
15581 SI 15581 SI SI1 15581 1.100000 28.08600
15582 SI 15582 SI SI1 15582 1.100000 28.08600
15583 SI 15583 SI SI1 15583 1.100000 28.08600
15584 SI 15584 SI SI1 15584 1.100000 28.08600
15585 SI 15585 SI SI1 15585 1.100000 28.08600
15586 SI 15586 SI SI1 15586 1.100000 28.08600
15587 SI 15587 SI SI1 15587 1.100000 28.08600
15588 SI 15588 SI SI1 15588 1.100000 28.08600
15589 SI 15589 SI SI1 15589 1.100000 28.08600
15590 SI 15590 SI SI1 15590 1.100000 28.08600
15591 SI 15591 SI SI1 15591 1.100000 28.08600
15592 SI 15592 SI SI1 15592 1.100000 28.08600
15593 SI 15593 SI SI1 15593 1.100000 28.08600
15594 SI 15594 SI SI1 15594 1.100000 28.08600
15595 SI 15595 SI SI1 15595 1.100000 28.08600
15596 SI 15596 SI SI1 15596 1.100000 28.08600
15597 SI 15597 SI SI1 15597 1.100000 28.08600
15598 SI 15598 SI SI1 15598 1.100000 28.08600
15599 SI 15599 SI SI1 15599 1.100000 28.08600
15600 SI 15600 SI SI1 15600 1.100000 28.08600
15601 SI 15601 SI SI1 15601 1.100000 28.08600
15602 SI 15602 SI SI1 15602 1.100000 28.08600
15603 SI 15603 SI SI1 15603 1.100000 28.08600
15604 SI 15604 SI SI1 15604 1.100000 28.08600
15605 SI 15605 SI SI1 15605 1.100000 28.08600
15606 SI 15606 SI SI1 15606 1.100000 28.08600
15607 SI 15607 SI SI1 15607 1.100000 28.08600
15608 SI 15608 SI SI1 15608 1.100000 28.08600
15609 SI 15609 SI SI1 15609 1.100000 28.08600
15610 SI 15610 SI SI1 15610 1.100000 28.08600
15611 SI 15611 SI SI1 15611 1.100000 28.08600
15612 SI 15612 SI SI1 15612 1.100000 28.08600
15613 SI 15613 SI SI1 15613 1.100000 28.08600
15614 SI 15614 SI SI1 15614 1.100000 28.08600
15615 SI 15615 SI SI1 15615 1.100000 28.08600
15616 SI 15616 SI SI1 15616 1.100000 28.08600
15617 SI 15617 SI SI1 15617 1.100000 28.08600
15618 SI 15618 SI SI1 15618 1.100000 28.08600
15619 SI 15619 SI SI1 15619 1.100000 28.08600
15620 SI 15620 SI SI1 15620 1.100000 28.08600
15621 SI 15621 SI SI1 15621 1.100000 28.08600
15622 SI 15622 SI SI1 15622 1.100000 28.08600
15623 SI 15623 SI SI1 15623 1.100000 28.08600
15624 SI 15624 SI SI1 15624 1.100000 28.08600
15625 SI 15625 SI SI1 15625 1.100000 28.08600
15626 SI 15626 SI SI1 15626 1.100000 28.08600
15627 SI 15627 SI SI1 15627 1.100000 28.08600
15628 SI 15628 SI SI1 15628 1.100000 28.08600
15629 SI 15629 SI SI1 15629 1.100000 28.08600
15630 SI 15630 SI SI1 15630 1.100000 28.08600
15631 SI 15631 SI SI1 15631 1.100000 28.08600
15632 SI 15632 SI SI1 15632 1.100000 28.08600
15633 SI 15633 SI SI1 15633 1.100000 28.08600
15634 SI 15634 SI SI1 15634 1.100000 28.08600
15635 SI 15635 SI SI1 15635 1.100000 28.08600
15636 SI 15636 SI SI1 15636 1.100000 28.08600
15637 SI 15637 SI SI1 15637 1.100000 28.08600
15638 SI 15638 SI SI1 15638 1.100000 28.08600
15639 SI 15639 SI SI1 15639 1.100000 28.08600
15640 SI 15640 SI SI1 15640 1.100000 28.08600
15641 SI 15641 SI SI1 15641 1.100000 28.08600
15642 SI 15642 SI SI1 15642 1.100000 28.08600
15643 SI 15643 SI SI1 15643 1.100000 28.08600
15644 SI 15644 SI SI1 15644 1.100000 28.08600
15645 SI 15645 SI SI1 15645 1.100000 28.08600
15646 SI 15646 SI SI1 15646 1.100000 28.08600
15647 SI 15647 SI SI1 15647 1.100000 28.08600
15648 SI 15648 SI SI1 15648 1.100000 28.08600
15649 SI 15649 SI SI1 15649 1.100000 28.08600
15650 SI 15650 SI SI1 15650 1.100000 28.08600
15651 SI 15651 SI SI1 15651 1.100000 28.08600
15652 SI 15652 SI SI1 15652 1.100000 28.08600
15653 SI 15653 SI SI1 15653 1.100000 28.08600
15654 SI 15654 SI SI1 15654 1.100000 28.08600
15655 SI 15655 SI SI1 15655 1.100000 28.08600
15656 SI 15656 SI SI1 15656 1.100000 28.08600
15657 SI 15657 SI SI1 15657 1.100000 28.08600
15658 SI 15658 SI SI1 15658 1.100000 28.08600
15659 SI 15659 SI SI1 15659 1.100000 28.08600
15660 SI 15660 SI SI1 15660 1.100000 28.08600
15661 SI 15661 SI SI1 15661 1.100000 28.08600
15662 SI 15662 SI SI1 15662 1.100000 28.08600
15663 SI 15663 SI SI1 15663 1.100000 28.08600
15664 SI 15664 SI SI1 15664 1.100000 28.08600
15665 SI 15665 SI SI1 15665 1.100000 28.08600
15666 SI 15666 SI SI1 15666 1.100000 28.08600
15667 SI 15667 SI SI1 15667 1.100000 28.08600
15668 SI 15668 SI SI1 15668 1.100000 28.08600
15669 SI 15669 SI SI1 15669 1.100000 28.08600
15670 SI 15670 SI SI1 15670 1.100000 28.08600
15671 SI 15671 SI SI1 15671 1.100000 28.08600
15672 SI 15672 SI SI1 15672 1.100000 28.08600
15673 SI 15673 SI SI1 15673 1.100000 28.08600
15674 SI 15674 SI SI1 15674 1.100000 28.08600
15675 SI 15675 SI SI1 15675 1.100000 28.08600
15676 SI 15676 SI SI1 15676 1.100000 28.08600
15677 SI 15677 SI SI1 15677 1.100000 28.08600
15678 SI 15678 SI SI1 15678 1.100000 28.08600
15679 SI 15679 SI SI1 15679 1.100000 28.08600
15680 SI 15680 SI SI1 15680 1.100000 28.08600
15681 SI 15681 SI SI1 15681 1.100000 28.08600
15682 SI 15682 SI SI1 15682 1.100000 28.08600
15683 SI 15683 SI SI1 15683 1.100000 28.08600
15684 SI 15684 SI SI1 15684 1.100000 28.08600
15685 SI 15685 SI SI1 15685 1.100000 28.08600
15686 SI 15686 SI SI1 15686 1.100000 28.08600
15687 SI 15687 SI SI1 15687 1.100000 28.08600
15688 SI 15688 SI SI1 15688 1.100000 28.08600
15689 SI 15689 SI SI1 15689 1.100000 28.08600
15690 SI 15690 SI SI1 15690 1.100000 28.08600
15691 SI 15691 SI SI1 15691 1.100000 28.08600
15692 SI 15692 SI SI1 15692 1.100000 28.08600
15693 SI 15693 SI SI1 15693 1.100000 28.08600
15694 SI 15694 SI SI1 15694 1.100000 28.08600
15695 SI 15695 SI SI1 15695 1.100000 28.08600
15696 SI 15696 SI SI1 15696 1.100000 28.08600
15697 SI 15697 SI SI1 15697 1.100000 28.08600
15698 SI 15698 SI SI1 15698 1.100000 28.08600
15699 SI 15699 SI SI1 15699 1.100000 28.08600
15700 SI 15700 SI SI1 15700 1.100000 28.08600
15701 SI 15701 SI SI1 15701 1.100000 28.08600
15702 SI 15702 SI SI1 15702 1.100000 28.08600
15703 SI 15703 SI SI1 15703 1.100000 28.08600
15704 SI 15704 SI SI1 15704 1.100000 28.08600
15705 SI 15705 SI SI1 15705 1.100000 28.08600
15706 SI 15706 SI SI1 15706 1.100000 28.08600
15707 SI 15707 SI SI1 15707 1.100000 28.08600
15708 SI 15708 SI SI1 15708 1.100000 28.08600
15709 SI 15709 SI SI1 15709 1.100000 28.08600
15710 SI 15710 SI SI1 15710 1.100000 28.08600
15711 SI 15711 SI SI1 15711 1.100000 28.08600
15712 SI 15712 SI SI1 15712 1.100000 28.08600
15713 SI 15713 SI SI1 15713 1.100000 28.08600
15714 SI 15714 SI SI1 15714 1.100000 28.08600
15715 SI 15715 SI SI1 15715 1.100000 28.08600
15716 SI 15716 SI SI1 15716 1.100000 28.08600
15717 SI 15717 SI SI1 15717 1.100000 28.08600
15718 SI 15718 SI SI1 15718 1.100000 28.08600
15719 SI 15719 SI SI1 15719 1.100000 28.08600
15720 SI 15720 SI SI1 15720 1.100000 28.08600
15721 SI 15721 SI SI1 15721 1.100000 28.08600
15722 SI 15722 SI SI1 15722 1.100000 28.08600
15723 SI 15723 SI SI1 15723 1.100000 28.08600
15724 SI 15724 SI SI1 15724 1.100000 28.08600
15725 SI 15725 SI SI1 15725 1.100000 28.08600
15726 SI 15726 SI SI1 15726 1.100000 28.08600
15727 SI 15727 SI SI1 15727 1.100000 28.08600
15728 SI 15728 SI SI1 15728 1.100000 28.08600
15729 SI 15729 SI SI1 15729 1.100000 28.08600
15730 SI 15730 SI SI1 15730 1.100000 28.08600
15731 SI 15731 SI SI1 15731 1.100000 28.08600
15732 SI 15732 SI SI1 15732 1.100000 28.08600
15733 SI 15733 SI SI1 15733 1.100000 28.08600
15734 SI 15734 SI SI1 15734 1.100000 28.08600
15735 SI 15735 SI SI1 15735 1.100000 28.08600
15736 SI 15736 SI SI1 15736 1.100000 28.08600
15737 SI 15737 SI SI1 15737 1.100000 28.08600
15738 SI 15738 SI SI1 15738 1.100000 28.08600
15739 SI 15739 SI SI1 15739 1.100000 28.08600
15740 SI 15740 SI SI1 15740 1.100000 28.08600
15741 SI 15741 SI SI1 15741 1.100000 28.08600
15742 SI 15742 SI SI1 15742 1.100000 28.08600
15743 SI 15743 SI SI1 15743 1.100000 28.08600
15744 SI 15744 SI SI1 15744 1.100000 28.08600
15745 SI 15745 SI SI1 15745 1.100000 28.08600
15746 SI 15746 SI SI1 15746 1.100000 28.08600
15747 SI 15747 SI SI1 15747 1.100000 28.08600
15748 SI 15748 SI SI1 15748 1.100000 28.08600
15749 SI 15749 SI SI1 15749 1.100000 28.08600
15750 SI 15750 SI SI1 15750 1.100000 28.08600
15751 SI 15751 SI SI1 15751 1.100000 28.08600
15752 SI 15752 SI SI1 15752 1.100000 28.08600
15753 SI 15753 SI SI1 15753 1.100000 28.08600
15754 SI 15754 SI SI1 15754 1.100000 28.08600
15755 SI 15755 SI SI1 15755 1.100000 28.08600
15756 SI 15756 SI SI1 15756 1.100000 28.08600
15757 SI 15757 SI SI1 15757 1.100000 28.08600
15758 SI 15758 SI SI1 15758 1.100000 28.08600
15759 SI 15759 SI SI1 15759 1.100000 28.08600
15760 SI 15760 SI SI1 15760 1.100000 28.08600
15761 SI 15761 SI SI1 15761 1.100000 28.08600
15762 SI 15762 SI SI1 15762 1.100000 28.08600
15763 SI 15763 SI SI1 15763 1.100000 28.08600
15764 SI 15764 SI SI1 15764 1.100000 28.08600
15765 SI 15765 SI SI1 15765 1.100000 28.08600
15766 SI 15766 SI SI1 15766 1.100000 28.08600
15767 SI 15767 SI SI1 15767 1.100000 28.08600
15768 SI 15768 SI SI1 15768 1.100000 28.08600
15769 SI 15769 SI SI1 15769 1.100000 28.08600
15770 SI 15770 SI SI1 15770 1.100000 28.08600
15771 SI 15771 SI SI1 15771 1.100000 28.08600
15772 SI 15772 SI SI1 15772 1.100000 28.08600
15773 SI 15773 SI SI1 15773 1.100000 28.08600
15774 SI 15774 SI SI1 15774 1.100000 28.08600
15775 SI 15775 SI SI1 15775 1.100000 28.08600
15776 SI 15776 SI SI1 15776 1.100000 28.08600
15777 SI 15777 SI SI1 15777 1.100000 28.08600
15778 SI 15778 SI SI1 15778 1.100000 28.08600
15779 SI 15779 SI SI1 15779 1.100000 28.08600
15780 SI 15780 SI SI1 15780 1.100000 28.08600
15781 SI 15781 SI SI1 15781 1.100000 28.08600
15782 SI 15782 SI SI1 15782 1.100000 28.08600
15783 SI 15783 SI SI1 15783 1.100000 28.08600
15784 SI 15784 SI SI1 15784 1.100000 28.08600
15785 SI 15785 SI SI1 15785 1.100000 28.08600
15786 SI 15786 SI SI1 15786 1.100000 28.08600
15787 SI 15787 SI SI1 15787 1.100000 28.08600
15788 SI 15788 SI SI1 15788 1.100000 28.08600
15789 SI 15789 SI SI1 15789 1.100000 28.08600
15790 SI 15790 SI SI1 15790 1.100000 28.08600
15791 SI 15791 SI SI1 15791 1.100000 28.08600
15792 SI 15792 SI SI1 15792 1.100000 28.08600
15793 SI 15793 SI SI1 15793 1.100000 28.08600
15794 SI 15794 SI SI1 15794 1.100000 28.08600
15795 SI 15795 SI SI1 15795 1.100000 28.08600
15796 SI 15796 SI SI1 15796 1.100000 28.08600
15797 SI 15797 SI SI1 15797 1.100000 28.08600
15798 SI 15798 SI SI1 15798 1.100000 28.08600
15799 SI 15799 SI SI1 15799 1.100000 28.08600
15800 SI 15800 SI SI1 15800 1.100000 28.08600
15801 SI 15801 SI SI1 15801 1.100000 28.08600
15802 SI 15802 SI SI1 15802 1.100000 28.08600
15803 SI 15803 SI SI1 15803 1.100000 28.08600
15804 SI 15804 SI SI1 15804 1.100000 28.08600
15805 SI 15805 SI SI1 15805 1.100000 28.08600
15806 SI 15806 SI SI1 15806 1.100000 28.08600
15807 SI 15807 SI SI1 15807 1.100000 28.08600
15808 SI 15808 SI SI1 15808 1.100000 28.08600
15809 SI 15809 SI SI1 15809 1.100000 28.08600
15810 SI 15810 SI SI1 15810 1.100000 28.08600
15811 SI 15811 SI SI1 15811 1.100000 28.08600
15812 SI 15812 SI SI1 15812 1.100000 28.08600
15813 SI 15813 SI SI1 15813 1.100000 28.08600
15814 SI 15814 SI SI1 15814 1.100000 28.08600
15815 SI 15815 SI SI1 15815 1.100000 28.08600
15816 SI 15816 SI SI1 15816 1.100000 28.08600
15817 SI 15817 SI SI1 15817 1.100000 28.08600
15818 SI 15818 SI SI1 15818 1.100000 28.08600
15819 SI 15819 SI SI1 15819 1.100000 28.08600
15820 SI 15820 SI SI1 15820 1.100000 28.08600
15821 SI 15821 SI SI1 15821 1.100000 28.08600
15822 SI 15822 SI SI1 15822 1.100000 28.08600
15823 SI 15823 SI SI1 15823 1.100000 28.08600
15824 SI 15824 SI SI1 15824 1.100000 28.08600
15825 SI 15825 SI SI1 15825 1.100000 28.08600
15826 SI 15826 SI SI1 15826 1.100000 28.08600
15827 SI 15827 SI SI1 15827 1.100000 28.08600
15828 SI 15828 SI SI1 15828 1.100000 28.08600
15829 SI 15829 SI SI1 15829 1.100000 28.08600
15830 SI 15830 SI SI1 15830 1.100000 28.08600
15831 SI 15831 SI SI1 15831 1.100000 28.08600
15832 SI 15832 SI SI1 15832 1.100000 28.08600
15833 SI 15833 SI SI1 15833 1.100000 28.08600
15834 SI 15834 SI SI1 15834 1.100000 28.08600
15835 SI 15835 SI SI1 15835 1.100000 28.08600
15836 SI 15836 SI SI1 15836 1.100000 28.08600
15837 SI 15837 SI SI1 15837 1.100000 28.08600
15838 SI 15838 SI SI1 15838 1.100000 28.08600
15839 SI 15839 SI SI1 15839 1.100000 28.08600
15840 SI 15840 SI SI1 15840 1.100000 28.08600
15841 SI 15841 SI SI1 15841 1.100000 28.08600
15842 SI 15842 SI SI1 15842 1.100000 28.08600
15843 SI 15843 SI SI1 15843 1.100000 28.08600
15844 SI 15844 SI SI1 15844 1.100000 28.08600
15845 SI 15845 SI SI1 15845 1.100000 28.08600
15846 SI 15846 SI SI1 15846 1.100000 28.08600
15847 SI 15847 SI SI1 15847 1.100000 28.08600
15848 SI 15848 SI SI1 15848 1.100000 28.08600
15849 SI 15849 SI SI1 15849 1.100000 28.08600
15850 SI 15850 SI SI1 15850 1.100000 28.08600
15851 SI 15851 SI SI1 15851 1.100000 28.08600
15852 SI 15852 SI SI1 15852 1.100000 28.08600
15853 SI 15853 SI SI1 15853 1.100000 28.08600
15854 SI 15854 SI SI1 15854 1.100000 28.08600
15855 SI 15855 SI SI1 15855 1.100000 28.08600
15856 SI 15856 SI SI1 15856 1.100000 28.08600
15857 SI 15857 SI SI1 15857 1.100000 28.08600
15858 SI 15858 SI SI1 15858 1.100000 28.08600
15859 SI 15859 SI SI1 15859 1.100000 28.08600
15860 SI 15860 SI SI1 15860 1.100000 28.08600
15861 SI 15861 SI SI1 15861 1.100000 28.08600
15862 SI 15862 SI SI1 15862 1.100000 28.08600
15863 SI 15863 SI SI1 15863 1.100000 28.08600
15864 SI 15864 SI SI1 15864 1.100000 28.08600
15865 SI 15865 SI SI1 15865 1.100000 28.08600
15866 SI 15866 SI SI1 15866 1.100000 28.08600
15867 SI 15867 SI SI1 15867 1.100000 28.08600
15868 SI 15868 SI SI1 15868 1.100000 28.08600
15869 SI 15869 SI SI1 15869 1.100000 28.08600
15870 SI 15870 SI SI1 15870 1.100000 28.08600
15871 SI 15871 SI SI1 15871 1.100000 28.08600
15872 SI 15872 SI SI1 15872 1.100000 28.08600
15873 SI 15873 SI SI1 15873 1.100000 28.08600
15874 SI 15874 SI SI1 15874 1.100000 28.08600
15875 SI 15875 SI SI1 15875 1.100000 28.08600
15876 SI 15876 SI SI1 15876 1.100000 28.08600
15877 SI 15877 SI SI1 15877 1.100000 28.08600
15878 SI 15878 SI SI1 15878 1.100000 28.08600
15879 SI 15879 SI SI1 15879 1.100000 28.08600
15880 SI 15880 SI SI1 15880 1.100000 28.08600
15881 SI 15881 SI SI1 15881 1.100000 28.08600
15882 SI 15882 SI SI1 15882 1.100000 28.08600
15883 SI 15883 SI SI1 15883 1.100000 28.08600
15884 SI 15884 SI SI1 15884 1.100000 28.08600
15885 SI 15885 SI SI1 15885 1.100000 28.08600
15886 SI 15886 SI SI1 15886 1.100000 28.08600
15887 SI 15887 SI SI1 15887 1.100000 28.08600
15888 SI 15888 SI SI1 15888 1.100000 28.08600
15889 SI 15889 SI SI1 15889 1.100000 28.08600
15890 SI 15890 SI SI1 15890 1.100000 28.08600
15891 SI 15891 SI SI1 15891 1.100000 28.08600
15892 SI 15892 SI SI1 15892 1.100000 28.08600
15893 SI 15893 SI SI1 15893 1.100000 28.08600
15894 SI 15894 SI SI1 15894 1.100000 28.08600
15895 SI 15895 SI SI1 15895 1.100000 28.08600
15896 SI 15896 SI SI1 15896 1.100000 28.08600
15897 SI 15897 SI SI1 15897 1.100000 28.08600
15898 SI 15898 SI SI1 15898 1.100000 28.08600
15899 SI 15899 SI SI1 15899 1.100000 28.08600
15900 SI 15900 SI SI1 15900 1.100000 28.08600
15901 SI 15901 SI SI1 15901 1.100000 28.08600
15902 SI 15902 SI SI1 15902 1.100000 28.08600
15903 SI 15903 SI SI1 15903 1.100000 28.08600
15904 SI 15904 SI SI1 15904 1.100000 28.08600
15905 SI 15905 SI SI1 15905 1.100000 28.08600
15906 SI 15906 SI SI1 15906 1.100000 28.08600
15907 SI 15907 SI SI1 15907 1.100000 28.08600
15908 SI 15908 SI SI1 15908 1.100000 28.08600
15909 SI 15909 SI SI1 15909 1.100000 28.08600
15910 SI 15910 SI SI1 15910 1.100000 28.08600
15911 SI 15911 SI SI1 15911 1.100000 28.08600
15912 SI 15912 SI SI1 15912 1.100000 28.08600
15913 SI 15913 SI SI1 15913 1.100000 28.08600
15914 SI 15914 SI SI1 15914 1.100000 28.08600
15915 SI 15915 SI SI1 15915 1.100000 28.08600
15916 SI 15916 SI SI1 15916 1.100000 28.08600
15917 SI 15917 SI SI1 15917 1.100000 28.08600
15918 SI 15918 SI SI1 15918 1.100000 28.08600
15919 SI 15919 SI SI1 15919 1.100000 28.08600
15920 SI 15920 SI SI1 15920 1.100000 28.08600
15921 SI 15921 SI SI1 15921 1.100000 28.08600
15922 SI 15922 SI SI1 15922 1.100000 28.08600
15923 SI 15923 SI SI1 15923 1.100000 28.08600
15924 SI 15924 SI SI1 15924 1.100000 28.08600
15925 SI 15925 SI SI1 15925 1.100000 28.08600
15926 SI 15926 SI SI1 15926 1.100000 28.08600
15927 SI 15927 SI SI1 15927 1.100000 28.08600
15928 SI 15928 SI SI1 15928 1.100000 28.08600
15929 SI 15929 SI SI1 15929 1.100000 28.08600
15930 SI 15930 SI SI1 15930 1.100000 28.08600
15931 SI 15931 SI SI1 15931 1.100000 28.08600
15932 SI 15932 SI SI1 15932 1.100000 28.08600
15933 SI 15933 SI SI1 15933 1.100000 28.08600
15934 SI 15934 SI SI1 15934 1.100000 28.08600
15935 SI 15935 SI SI1 15935 1.100000 28.08600
15936 SI 15936 SI SI1 15936 1.100000 28.08600
15937 SI 15937 SI SI1 15937 1.100000 28.08600
15938 SI 15938 SI SI1 15938 1.100000 28.08600
15939 SI 15939 SI SI1 15939 1.100000 28.08600
15940 SI 15940 SI SI1 15940 1.100000 28.08600
15941 SI 15941 SI SI1 15941 1.100000 28.08600
15942 SI 15942 SI SI1 15942 1.100000 28.08600
15943 SI 15943 SI SI1 15943 1.100000 28.08600
15944 SI 15944 SI SI1 15944 1.100000 28.08600
15945 SI 15945 SI SI1 15945 1.100000 28.08600
15946 SI 15946 SI SI1 15946 1.100000 28.08600
15947 SI 15947 SI SI1 15947 1.100000 28.08600
15948 SI 15948 SI SI1 15948 1.100000 28.08600
15949 SI 15949 SI SI1 15949 1.100000 28.08600
15950 SI 15950 SI SI1 15950 1.100000 28.08600
15951 SI 15951 SI SI1 15951 1.100000 28.08600
15952 SI 15952 SI SI1 15952 1.100000 28.08600
15953 SI 15953 SI SI1 15953 1.100000 28.08600
15954 SI 15954 SI SI1 15954 1.100000 28.08600
15955 SI 15955 SI SI1 15955 1.100000 28.08600
15956 SI 15956 SI SI1 15956 1.100000 28.08600
15957 SI 15957 SI SI1 15957 1.100000 28.08600
15958 SI 15958 SI SI1 15958 1.100000 28.08600
15959 SI 15959 SI SI1 15959 1.100000 28.08600
15960 SI 15960 SI SI1 15960 1.100000 28.08600
15961 SI 15961 SI SI1 15961 1.100000 28.08600
15962 SI 15962 SI SI1 15962 1.100000 28.08600
15963 SI 15963 SI SI1 15963 1.100000 28.08600
15964 SI 15964 SI SI1 15964 1.100000 28.08600
15965 SI 15965 SI SI1 15965 1.100000 28.08600
15966 SI 15966 SI SI1 15966 1.100000 28.08600
15967 SI 15967 SI SI1 15967 1.100000 28.08600
15968 SI 15968 SI SI1 15968 1.100000 28.08600
15969 SI 15969 SI SI1 15969 1.100000 28.08600
15970 SI 15970 SI SI1 15970 1.100000 28.08600
15971 SI 15971 SI SI1 15971 1.100000 28.08600
15972 SI 15972 SI SI1 15972 1.100000 28.08600
15973 SI 15973 SI SI1 15973 1.100000 28.08600
15974 SI 15974 SI SI1 15974 1.100000 28.08600
15975 SI 15975 SI SI1 15975 1.100000 28.08600
15976 SI 15976 SI SI1 15976 1.100000 28.08600
15977 SI 15977 SI SI1 15977 1.100000 28.08600
15978 SI 15978 SI SI1 15978 1.100000 28.08600
15979 SI 15979 SI SI1 15979 1.100000 28.08600
15980 SI 15980 SI SI1 15980 1.100000 28.08600
15981 SI 15981 SI SI1 15981 1.100000 28.08600
15982 SI 15982 SI SI1 15982 1.100000 28.08600
15983 SI 15983 SI SI1 15983 1.100000 28.08600
15984 SI 15984 SI SI1 15984 1.100000 28.08600
15985 SI 15985 SI SI1 15985 1.100000 28.08600
15986 SI 15986 SI SI1 15986 1.100000 28.08600
15987 SI 15987 SI SI1 15987 1.100000 28.08600
15988 SI 15988 SI SI1 15988 1.100000 28.08600
15989 SI 15989 SI SI1 15989 1.100000 28.08600
15990 SI 15990 SI SI1 15990 1.100000 28.08600
15991 SI 15991 SI SI1 15991 1.100000 28.08600
15992 SI 15992 SI SI1 15992 1.100000 28.08600
15993 SI 15993 SI SI1 15993 1.100000 28.08600
15994 SI 15994 SI SI1 15994 1.100000 28.08600
15995 SI 15995 SI SI1 15995 1.100000 28.08600
15996 SI 15996 SI SI1 15996 1.100000 28.08600
15997 SI 15997 SI SI1 15997 1.100000 28.08600
15998 SI 15998 SI SI1 15998 1.100000 28.08600
15999 SI 15999 SI SI1 15999 1.100000 28.08600
16000 SI 16000 SI SI1 16000 1.100000 28.08600
16001 SI 16001 SI SI1 16001 1.100000 28.08600
16002 SI 16002 SI SI1 16002 1.100000 28.08600
16003 SI 16003 SI SI1 16003 1.100000 28.08600
16004 SI 16004 SI SI1 16004 1.100000 28.08600
16005 SI 16005 SI SI1 16005 1.100000 28.08600
16006 SI 16006 SI SI1 16006 1.100000 28.08600
16007 SI 16007 SI SI1 16007 1.100000 28.08600
16008 SI 16008 SI SI1 16008 1.100000 28.08600
16009 SI 16009 SI SI1 16009 1.100000 28.08600
16010 SI 16010 SI SI1 16010 1.100000 28.08600
16011 SI 16011 SI SI1 16011 1.100000 28.08600
16012 SI 16012 SI SI1 16012 1.100000 28.08600
16013 SI 16013 SI SI1 16013 1.100000 28.08600
16014 SI 16014 SI SI1 16014 1.100000 28.08600
16015 SI 16015 SI SI1 16015 1.100000 28.08600
16016 SI 16016 SI SI1 16016 1.100000 28.08600
16017 SI 16017 SI SI1 16017 1.100000 28.08600
16018 SI 16018 SI SI1 16018 1.100000 28.08600
16019 SI 16019 SI SI1 16019 1.100000 28.08600
16020 SI 16020 SI SI1 16020 1.100000 28.08600
16021 SI 16021 SI SI1 16021 1.100000 28.08600
16022 SI 16022 SI SI1 16022 1.100000 28.08600
16023 SI 16023 SI SI1 16023 1.100000 28.08600
16024 SI 16024 SI SI1 16024 1.100000 28.08600
16025 SI 16025 SI SI1 16025 1.100000 28.08600
16026 SI 16026 SI SI1 16026 1.100000 28.08600
16027 SI 16027 SI SI1 16027 1.100000 28.08600
16028 SI 16028 SI SI1 16028 1.100000 28.08600
16029 SI 16029 SI SI1 16029 1.100000 28.08600
16030 SI 16030 SI SI1 16030 1.100000 28.08600
16031 SI 16031 SI SI1 16031 1.100000 28.08600
16032 SI 16032 SI SI1 16032 1.100000 28.08600
16033 SI 16033 SI SI1 16033 1.100000 28.08600
16034 SI 16034 SI SI1 16034 1.100000 28.08600
16035 SI 16035 SI SI1 16035 1.100000 28.08600
16036 SI 16036 SI SI1 16036 1.100000 28.08600
16037 SI 16037 SI SI1 16037 1.100000 28.08600
16038 SI 16038 SI SI1 16038 1.100000 28.08600
16039 SI 16039 SI SI1 16039 1.100000 28.08600
16040 SI 16040 SI SI1 16040 1.100000 28.08600
16041 SI 16041 SI SI1 16041 1.100000 28.08600
16042 SI 16042 SI SI1 16042 1.100000 28.08600
16043 SI 16043 SI SI1 16043 1.100000 28.08600
16044 SI 16044 SI SI1 16044 1.100000 28.08600
16045 SI 16045 SI SI1 16045 1.100000 28.08600
16046 SI 16046 SI SI1 16046 1.100000 28.08600
16047 SI 16047 SI SI1 16047 1.100000 28.08600
16048 SI 16048 SI SI1 16048 1.100000 28.08600
16049 SI 16049 SI SI1 16049 1.100000 28.08600
16050 SI 16050 SI SI1 16050 1.100000 28.08600
16051 SI 16051 SI SI1 16051 1.100000 28.08600
16052 SI 16052 SI SI1 16052 1.100000 28.08600
16053 SI 16053 SI SI1 16053 1.100000 28.08600
16054 SI 16054 SI SI1 16054 1.100000 28.08600
16055 SI 16055 SI SI1 16055 1.100000 28.08600
16056 SI 16056 SI SI1 16056 1.100000 28.08600
16057 SI 16057 SI SI1 16057 1.100000 28.08600
16058 SI 16058 SI SI1 16058 1.100000 28.08600
16059 SI 16059 SI SI1 16059 1.100000 28.08600
16060 SI 16060 SI SI1 16060 1.100000 28.08600
16061 SI 16061 SI SI1 16061 1.100000 28.08600
16062 SI 16062 SI SI1 16062 1.100000 28.08600
16063 SI 16063 SI SI1 16063 1.100000 28.08600
16064 SI 16064 SI SI1 16064 1.100000 28.08600
16065 SI 16065 SI SI1 16065 1.100000 28.08600
16066 SI 16066 SI SI1 16066 1.100000 28.08600
16067 SI 16067 SI SI1 16067 1.100000 28.08600
16068 SI 16068 SI SI1 16068 1.100000 28.08600
16069 SI 16069 SI SI1 16069 1.100000 28.08600
16070 SI 16070 SI SI1 16070 1.100000 28.08600
16071 SI 16071 SI SI1 16071 1.100000 28.08600
16072 SI 16072 SI SI1 16072 1.100000 28.08600
16073 SI 16073 SI SI1 16073 1.100000 28.08600
16074 SI 16074 SI SI1 16074 1.100000 28.08600
16075 SI 16075 SI SI1 16075 1.100000 28.08600
16076 SI 16076 SI SI1 16076 1.100000 28.08600
16077 SI 16077 SI SI1 16077 1.100000 28.08600
16078 SI 16078 SI SI1 16078 1.100000 28.08600
16079 SI 16079 SI SI1 16079 1.100000 28.08600
16080 SI 16080 SI SI1 16080 1.100000 28.08600
16081 SI 16081 SI SI1 16081 1.100000 28.08600
16082 SI 16082 SI SI1 16082 1.100000 28.08600
16083 SI 16083 SI SI1 16083 1.100000 28.08600
16084 SI 16084 SI SI1 16084 1.100000 28.08600
16085 SI 16085 SI SI1 16085 1.100000 28.08600
16086 SI 16086 SI SI1 16086 1.100000 28.08600
16087 SI 16087 SI SI1 16087 1.100000 28.08600
16088 SI 16088 SI SI1 16088 1.100000 28.08600
16089 SI 16089 SI SI1 16089 1.100000 28.08600
16090 SI 16090 SI SI1 16090 1.100000 28.08600
16091 SI 16091 SI SI1 16091 1.100000 28.08600
16092 SI 16092 SI SI1 16092 1.100000 28.08600
16093 SI 16093 SI SI1 16093 1.100000 28.08600
16094 SI 16094 SI SI1 16094 1.100000 28.08600
16095 SI 16095 SI SI1 16095 1.100000 28.08600
16096 SI 16096 SI SI1 16096 1.100000 28.08600
16097 SI 16097 SI SI1 16097 1.100000 28.08600
16098 SI 16098 SI SI1 16098 1.100000 28.08600
16099 SI 16099 SI SI1 16099 1.100000 28.08600
16100 SI 16100 SI SI1 16100 1.100000 28.08600
16101 SI 16101 SI SI1 16101 1.100000 28.08600
16102 SI 16102 SI SI1 16102 1.100000 28.08600
16103 SI 16103 SI SI1 16103 1.100000 28.08600
16104 SI 16104 SI SI1 16104 1.100000 28.08600
16105 SI 16105 SI SI1 16105 1.100000 28.08600
16106 SI 16106 SI SI1 16106 1.100000 28.08600
16107 SI 16107 SI SI1 16107 1.100000 28.08600
16108 SI 16108 SI SI1 16108 1.100000 28.08600
16109 SI 16109 SI SI1 16109 1.100000 28.08600
16110 SI 16110 SI SI1 16110 1.100000 28.08600
16111 SI 16111 SI SI1 16111 1.100000 28.08600
16112 SI 16112 SI SI1 16112 1.100000 28.08600
16113 SI 16113 SI SI1 16113 1.100000 28.08600
16114 SI 16114 SI SI1 16114 1.100000 28.08600
16115 SI 16115 SI SI1 16115 1.100000 28.08600
16116 SI 16116 SI SI1 16116 1.100000 28.08600
16117 SI 16117 SI SI1 16117 1.100000 28.08600
16118 SI 16118 SI SI1 16118 1.100000 28.08600
16119 SI 16119 SI SI1 16119 1.100000 28.08600
16120 SI 16120 SI SI1 16120 1.100000 28.08600
16121 SI 16121 SI SI1 16121 1.100000 28.08600
16122 SI 16122 SI SI1 16122 1.100000 28.08600
16123 SI 16123 SI SI1 16123 1.100000 28.08600
16124 SI 16124 SI SI1 16124 1.100000 28.08600
16125 SI 16125 SI SI1 16125 1.100000 28.08600
16126 SI 16126 SI SI1 16126 1.100000 28.08600
16127 SI 16127 SI SI1 16127 1.100000 28.08600
16128 SI 16128 SI SI1 16128 1.100000 28.08600
16129 SI 16129 SI SI1 16129 1.100000 28.08600
16130 SI 16130 SI SI1 16130 1.100000 28.08600
16131 SI 16131 SI SI1 16131 1.100000 28.08600
16132 SI 16132 SI SI1 16132 1.100000 28.08600
16133 SI 16133 SI SI1 16133 1.100000 28.08600
16134 SI 16134 SI SI1 16134 1.100000 28.08600
16135 SI 16135 SI SI1 16135 1.100000 28.08600
16136 SI 16136 SI SI1 16136 1.100000 28.08600
16137 SI 16137 SI SI1 16137 1.100000 28.08600
16138 SI 16138 SI SI1 16138 1.100000 28.08600
16139 SI 16139 SI SI1 16139 1.100000 28.08600
16140 SI 16140 SI SI1 16140 1.100000 28.08600
16141 SI 16141 SI SI1 16141 1.100000 28.08600
16142 SI 16142 SI SI1 16142 1.100000 28.08600
16143 SI 16143 SI SI1 16143 1.100000 28.08600
16144 SI 16144 SI SI1 16144 1.100000 28.08600
16145 SI 16145 SI SI1 16145 1.100000 28.08600
16146 SI 16146 SI SI1 16146 1.100000 28.08600
16147 SI 16147 SI SI1 16147 1.100000 28.08600
16148 SI 16148 SI SI1 16148 1.100000 28.08600
16149 SI 16149 SI SI1 16149 1.100000 28.08600
16150 SI 16150 SI SI1 16150 1.100000 28.08600
16151 SI 16151 SI SI1 16151 1.100000 28.08600
16152 SI 16152 SI SI1 16152 1.100000 28.08600
16153 SI 16153 SI SI1 16153 1.100000 28.08600
16154 SI 16154 SI SI1 16154 1.100000 28.08600
16155 SI 16155 SI SI1 16155 1.100000 28.08600
16156 SI 16156 SI SI1 16156 1.100000 28.08600
16157 SI 16157 SI SI1 16157 1.100000 28.08600
16158 SI 16158 SI SI1 16158 1.100000 28.08600
16159 SI 16159 SI SI1 16159 1.100000 28.08600
16160 SI 16160 SI SI1 16160 1.100000 28.08600
16161 SI 16161 SI SI1 16161 1.100000 28.08600
16162 SI 16162 SI SI1 16162 1.100000 28.08600
16163 SI 16163 SI SI1 16163 1.100000 28.08600
16164 SI 16164 SI SI1 16164 1.100000 28.08600
16165 SI 16165 SI SI1 16165 1.100000 28.08600
16166 SI 16166 SI SI1 16166 1.100000 28.08600
16167 SI 16167 SI SI1 16167 1.100000 28.08600
16168 SI 16168 SI SI1 16168 1.100000 28.08600
16169 SI 16169 SI SI1 16169 1.100000 28.08600
16170 SI 16170 SI SI1 16170 1.100000 28.08600
16171 SI 16171 SI SI1 16171 1.100000 28.08600
16172 SI 16172 SI SI1 16172 1.100000 28.08600
16173 SI 16173 SI SI1 16173 1.100000 28.08600
16174 SI 16174 SI SI1 16174 1.100000 28.08600
16175 SI 16175 SI SI1 16175 1.100000 28.08600
16176 SI 16176 SI SI1 16176 1.100000 28.08600
16177 SI 16177 SI SI1 16177 1.100000 28.08600
16178 SI 16178 SI SI1 16178 1.100000 28.08600
16179 SI 16179 SI SI1 16179 1.100000 28.08600
16180 SI 16180 SI SI1 16180 1.100000 28.08600
16181 SI 16181 SI SI1 16181 1.100000 28.08600
16182 SI 16182 SI SI1 16182 1.100000 28.08600
16183 SI 16183 SI SI1 16183 1.100000 28.08600
16184 SI 16184 SI SI1 16184 1.100000 28.08600
16185 SI 16185 SI SI1 16185 1.100000 28.08600
16186 SI 16186 SI SI1 16186 1.100000 28.08600
16187 SI 16187 SI SI1 16187 1.100000 28.08600
16188 SI 16188 SI SI1 16188 1.100000 28.08600
16189 SI 16189 SI SI1 16189 1.100000 28.08600
16190 SI 16190 SI SI1 16190 1.100000 28.08600
16191 SI 16191 SI SI1 16191 1.100000 28.08600
16192 SI 16192 SI SI1 16192 1.100000 28.08600
16193 SI 16193 SI SI1 16193 1.100000 28.08600
16194 SI 16194 SI SI1 16194 1.100000 28.08600
16195 SI 16195 SI SI1 16195 1.100000 28.08600
16196 SI 16196 SI SI1 16196 1.100000 28.08600
16197 SI 16197 SI SI1 16197 1.100000 28.08600
16198 SI 16198 SI SI1 16198 1.100000 28.08600
16199 SI 16199 SI SI1 16199 1.100000 28.08600
16200 SI 16200 SI SI1 16200 1.100000 28.08600
16201 SI 16201 SI SI1 16201 1.100000 28.08600
16202 SI 16202 SI SI1 16202 1.100000 28.08600
16203 SI 16203 SI SI1 16203 1.100000 28.08600
16204 SI 16204 SI SI1 16204 1.100000 28.08600
16205 SI 16205 SI SI1 16205 1.100000 28.08600
16206 SI 16206 SI SI1 16206 1.100000 28.08600
16207 SI 16207 SI SI1 16207 1.100000 28.08600
16208 SI 16208 SI SI1 16208 1.100000 28.08600
16209 SI 16209 SI SI1 16209 1.100000 28.08600
16210 SI 16210 SI SI1 16210 1.100000 28.08600
16211 SI 16211 SI SI1 16211 1.100000 28.08600
16212 SI 16212 SI SI1 16212 1.100000 28.08600
16213 SI 16213 SI SI1 16213 1.100000 28.08600
16214 SI 16214 SI SI1 16214 1.100000 28.08600
16215 SI 16215 SI SI1 16215 1.100000 28.08600
16216 SI 16216 SI SI1 16216 1.100000 28.08600
16217 SI 16217 SI SI1 16217 1.100000 28.08600
16218 SI 16218 SI SI1 16218 1.100000 28.08600
16219 SI 16219 SI SI1 16219 1.100000 28.08600
16220 SI 16220 SI SI1 16220 1.100000 28.08600
16221 SI 16221 SI SI1 16221 1.100000 28.08600
16222 SI 16222 SI SI1 16222 1.100000 28.08600
16223 SI 16223 SI SI1 16223 1.100000 28.08600
16224 SI 16224 SI SI1 16224 1.100000 28.08600
16225 SI 16225 SI SI1 16225 1.100000 28.08600
16226 SI 16226 SI SI1 16226 1.100000 28.08600
16227 SI 16227 SI SI1 16227 1.100000 28.08600
16228 SI 16228 SI SI1 16228 1.100000 28.08600
16229 SI 16229 SI SI1 16229 1.100000 28.08600
16230 SI 16230 SI SI1 16230 1.100000 28.08600
16231 SI 16231 SI SI1 16231 1.100000 28.08600
16232 SI 16232 SI SI1 16232 1.100000 28.08600
16233 SI 16233 SI SI1 16233 1.100000 28.08600
16234 SI 16234 SI SI1 16234 1.100000 28.08600
16235 SI 16235 SI SI1 16235 1.100000 28.08600
16236 SI 16236 SI SI1 16236 1.100000 28.08600
16237 SI 16237 SI SI1 16237 1.100000 28.08600
16238 SI 16238 SI SI1 16238 1.100000 28.08600
16239 SI 16239 SI SI1 16239 1.100000 28.08600
16240 SI 16240 SI SI1 16240 1.100000 28.08600
16241 SI 16241 SI SI1 16241 1.100000 28.08600
16242 SI 16242 SI SI1 16242 1.100000 28.08600
16243 SI 16243 SI SI1 16243 1.100000 28.08600
16244 SI 16244 SI SI1 16244 1.100000 28.08600
16245 SI 16245 SI SI1 16245 1.100000 28.08600
16246 SI 16246 SI SI1 16246 1.100000 28.08600
16247 SI 16247 SI SI1 16247 1.100000 28.08600
16248 SI 16248 SI SI1 16248 1.100000 28.08600
16249 SI 16249 SI SI1 16249 1.100000 28.08600
16250 SI 16250 SI SI1 16250 1.100000 28.08600
16251 SI 16251 SI SI1 16251 1.100000 28.08600
16252 SI 16252 SI SI1 16252 1.100000 28.08600
16253 SI 16253 SI SI1 16253 1.100000 28.08600
16254 SI 16254 SI SI1 16254 1.100000 28.08600
16255 SI 16255 SI SI1 16255 1.100000 28.08600
16256 SI 16256 SI SI1 16256 1.100000 28.08600
16257 SI 16257 SI SI1 16257 1.100000 28.08600
16258 SI 16258 SI SI1 16258 1.100000 28.08600
16259 SI 16259 SI SI1 16259 1.100000 28.08600
16260 SI 16260 SI SI1 16260 1.100000 28.08600
16261 SI 16261 SI SI1 16261 1.100000 28.08600
16262 SI 16262 SI SI1 16262 1.100000 28.08600
16263 SI 16263 SI SI1 16263 1.100000 28.08600
16264 SI 16264 SI SI1 16264 1.100000 28.08600
16265 SI 16265 SI SI1 16265 1.100000 28.08600
16266 SI 16266 SI SI1 16266 1.100000 28.08600
16267 SI 16267 SI SI1 16267 1.100000 28.08600
16268 SI 16268 SI SI1 16268 1.100000 28.08600
16269 SI 16269 SI SI1 16269 1.100000 28.08600
16270 SI 16270 SI SI1 16270 1.100000 28.08600
16271 SI 16271 SI SI1 16271 1.100000 28.08600
16272 SI 16272 SI SI1 16272 1.100000 28.08600
16273 SI 16273 SI SI1 16273 1.100000 28.08600
16274 SI 16274 SI SI1 16274 1.100000 28.08600
16275 SI 16275 SI SI1 16275 1.100000 28.08600
16276 SI 16276 SI SI1 16276 1.100000 28.08600
16277 SI 16277 SI SI1 16277 1.100000 28.08600
16278 SI 16278 SI SI1 16278 1.100000 28.08600
16279 SI 16279 SI SI1 16279 1.100000 28.08600
16280 ha 16280 TPSG HA2 16280 0.1332 1.008000
16281 ca 16280 TPSG CA2 16281 -0.0753 12.010000
16282 ca 16280 TPSG CA1 16282 -0.361 12.010000
16283 si 16280 TPSG Si 16283 1.1 28.085000
16284 ca 16280 TPSG CA6 16284 -0.0753 12.010000
16285 ha 16280 TPSG HH6 16285 0.1332 1.008000
16286 ca 16280 TPSG CA5 16286 -0.1548 12.010000
16287 ha 16280 TPSG HA5 16287 0.1282 1.008000
16288 ca 16280 TPSG CA4 16288 -0.1028 12.010000
16289 ha 16280 TPSG HA4 16289 0.1262 1.008000
16290 ca 16280 TPSG CA3 16290 -0.1548 12.010000
16291 ha 16280 TPSG HA3 16291 0.1282 1.008000
16292 OA 16280 TPSG O1 16292 -0.675000 15.99940
16293 HG 16280 TPSG H6 16293 0.400000 2.01600
16294 ha 16281 TPSG HA2 16294 0.1332 1.008000
16295 ca 16281 TPSG CA2 16295 -0.0753 12.010000
16296 ca 16281 TPSG CA1 16296 -0.361 12.010000
16297 si 16281 TPSG Si 16297 1.1 28.085000
16298 ca 16281 TPSG CA6 16298 -0.0753 12.010000
16299 ha 16281 TPSG HH6 16299 0.1332 1.008000
16300 ca 16281 TPSG CA5 16300 -0.1548 12.010000
16301 ha 16281 TPSG HA5 16301 0.1282 1.008000
16302 ca 16281 TPSG CA4 16302 -0.1028 12.010000
16303 ha 16281 TPSG HA4 16303 0.1262 1.008000
16304 ca 16281 TPSG CA3 16304 -0.1548 12.010000
16305 ha 16281 TPSG HA3 16305 0.1282 1.008000
16306 OA 16281 TPSG O1 16306 -0.675000 15.99940
16307 HG 16281 TPSG H6 16307 0.400000 2.01600
16308 ha 16282 TPSG HA2 16308 0.1332 1.008000
16309 ca 16282 TPSG CA2 16309 -0.0753 12.010000
16310 ca 16282 TPSG CA1 16310 -0.361 12.010000
16311 si 16282 TPSG Si 16311 1.1 28.085000
16312 ca 16282 TPSG CA6 16312 -0.0753 12.010000
16313 ha 16282 TPSG HH6 16313 0.1332 1.008000
16314 ca 16282 TPSG CA5 16314 -0.1548 12.010000
16315 ha 16282 TPSG HA5 16315 0.1282 1.008000
16316 ca 16282 TPSG CA4 16316 -0.1028 12.010000
16317 ha 16282 TPSG HA4 16317 0.1262 1.008000
16318 ca 16282 TPSG CA3 16318 -0.1548 12.010000
16319 ha 16282 TPSG HA3 16319 0.1282 1.008000
16320 OA 16282 TPSG O1 16320 -0.675000 15.99940
16321 HG 16282 TPSG H6 16321 0.400000 2.01600
16322 ha 16283 TPSG HA2 16322 0.1332 1.008000
16323 ca 16283 TPSG CA2 16323 -0.0753 12.010000
16324 ca 16283 TPSG CA1 16324 -0.361 12.010000
16325 si 16283 TPSG Si 16325 1.1 28.085000
16326 ca 16283 TPSG CA6 16326 -0.0753 12.010000
16327 ha 16283 TPSG HH6 16327 0.1332 1.008000
16328 ca 16283 TPSG CA5 16328 -0.1548 12.010000
16329 ha 16283 TPSG HA5 16329 0.1282 1.008000
16330 ca 16283 TPSG CA4 16330 -0.1028 12.010000
16331 ha 16283 TPSG HA4 16331 0.1262 1.008000
16332 ca 16283 TPSG CA3 16332 -0.1548 12.010000
16333 ha 16283 TPSG HA3 16333 0.1282 1.008000
16334 OA 16283 TPSG O1 16334 -0.675000 15.99940
16335 HG 16283 TPSG H6 16335 0.400000 2.01600
16336 ha 16284 TPSG HA2 16336 0.1332 1.008000
16337 ca 16284 TPSG CA2 16337 -0.0753 12.010000
16338 ca 16284 TPSG CA1 16338 -0.361 12.010000
16339 si 16284 TPSG Si 16339 1.1 28.085000
16340 ca 16284 TPSG CA6 16340 -0.0753 12.010000
16341 ha 16284 TPSG HH6 16341 0.1332 1.008000
16342 ca 16284 TPSG CA5 16342 -0.1548 12.010000
16343 ha 16284 TPSG HA5 16343 0.1282 1.008000
16344 ca 16284 TPSG CA4 16344 -0.1028 12.010000
16345 ha 16284 TPSG HA4 16345 0.1262 1.008000
16346 ca 16284 TPSG CA3 16346 -0.1548 12.010000
16347 ha 16284 TPSG HA3 16347 0.1282 1.008000
16348 OA 16284 TPSG O1 16348 -0.675000 15.99940
16349 HG 16284 TPSG H6 16349 0.400000 2.01600
16350 ha 16285 TPSG HA2 16350 0.1332 1.008000
16351 ca 16285 TPSG CA2 16351 -0.0753 12.010000
16352 ca 16285 TPSG CA1 16352 -0.361 12.010000
16353 si 16285 TPSG Si 16353 1.1 28.085000
16354 ca 16285 TPSG CA6 16354 -0.0753 12.010000
16355 ha 16285 TPSG HH6 16355 0.1332 1.008000
16356 ca 16285 TPSG CA5 16356 -0.1548 12.010000
16357 ha 16285 TPSG HA5 16357 0.1282 1.008000
16358 ca 16285 TPSG CA4 16358 -0.1028 12.010000
16359 ha 16285 TPSG HA4 16359 0.1262 1.008000
16360 ca 16285 TPSG CA3 16360 -0.1548 12.010000
16361 ha 16285 TPSG HA3 16361 0.1282 1.008000
16362 OA 16285 TPSG O1 16362 -0.675000 15.99940
16363 HG 16285 TPSG H6 16363 0.400000 2.01600
16364 ha 16286 TPSG HA2 16364 0.1332 1.008000
16365 ca 16286 TPSG CA2 16365 -0.0753 12.010000
16366 ca 16286 TPSG CA1 16366 -0.361 12.010000
16367 si 16286 TPSG Si 16367 1.1 28.085000
16368 ca 16286 TPSG CA6 16368 -0.0753 12.010000
16369 ha 16286 TPSG HH6 16369 0.1332 1.008000
16370 ca 16286 TPSG CA5 16370 -0.1548 12.010000
16371 ha 16286 TPSG HA5 16371 0.1282 1.008000
16372 ca 16286 TPSG CA4 16372 -0.1028 12.010000
16373 ha 16286 TPSG HA4 16373 0.1262 1.008000
16374 ca 16286 TPSG CA3 16374 -0.1548 12.010000
16375 ha 16286 TPSG HA3 16375 0.1282 1.008000
16376 OA 16286 TPSG O1 16376 -0.675000 15.99940
16377 HG 16286 TPSG H6 16377 0.400000 2.01600
16378 ha 16287 TPSG HA2 16378 0.1332 1.008000
16379 ca 16287 TPSG CA2 16379 -0.0753 12.010000
16380 ca 16287 TPSG CA1 16380 -0.361 12.010000
16381 si 16287 TPSG Si 16381 1.1 28.085000
16382 ca 16287 TPSG CA6 16382 -0.0753 12.010000
16383 ha 16287 TPSG HH6 16383 0.1332 1.008000
16384 ca 16287 TPSG CA5 16384 -0.1548 12.010000
16385 ha 16287 TPSG HA5 16385 0.1282 1.008000
16386 ca 16287 TPSG CA4 16386 -0.1028 12.010000
16387 ha 16287 TPSG HA4 16387 0.1262 1.008000
16388 ca 16287 TPSG CA3 16388 -0.1548 12.010000
16389 ha 16287 TPSG HA3 16389 0.1282 1.008000
16390 OA 16287 TPSG O1 16390 -0.675000 15.99940
16391 HG 16287 TPSG H6 16391 0.400000 2.01600
16392 ha 16288 TPSG HA2 16392 0.1332 1.008000
16393 ca 16288 TPSG CA2 16393 -0.0753 12.010000
16394 ca 16288 TPSG CA1 16394 -0.361 12.010000
16395 si 16288 TPSG Si 16395 1.1 28.085000
16396 ca 16288 TPSG CA6 16396 -0.0753 12.010000
16397 ha 16288 TPSG HH6 16397 0.1332 1.008000
16398 ca 16288 TPSG CA5 16398 -0.1548 12.010000
16399 ha 16288 TPSG HA5 16399 0.1282 1.008000
16400 ca 16288 TPSG CA4 16400 -0.1028 12.010000
16401 ha 16288 TPSG HA4 16401 0.1262 1.008000
16402 ca 16288 TPSG CA3 16402 -0.1548 12.010000
16403 ha 16288 TPSG HA3 16403 0.1282 1.008000
16404 OA 16288 TPSG O1 16404 -0.675000 15.99940
16405 HG 16288 TPSG H6 16405 0.400000 2.01600
16406 ha 16289 TPSG HA2 16406 0.1332 1.008000
16407 ca 16289 TPSG CA2 16407 -0.0753 12.010000
16408 ca 16289 TPSG CA1 16408 -0.361 12.010000
16409 si 16289 TPSG Si 16409 1.1 28.085000
16410 ca 16289 TPSG CA6 16410 -0.0753 12.010000
16411 ha 16289 TPSG HH6 16411 0.1332 1.008000
16412 ca 16289 TPSG CA5 16412 -0.1548 12.010000
16413 ha 16289 TPSG HA5 16413 0.1282 1.008000
16414 ca 16289 TPSG CA4 16414 -0.1028 12.010000
16415 ha 16289 TPSG HA4 16415 0.1262 1.008000
16416 ca 16289 TPSG CA3 16416 -0.1548 12.010000
16417 ha 16289 TPSG HA3 16417 0.1282 1.008000
16418 OA 16289 TPSG O1 16418 -0.675000 15.99940
16419 HG 16289 TPSG H6 16419 0.400000 2.01600
16420 ha 16290 TPSG HA2 16420 0.1332 1.008000
16421 ca 16290 TPSG CA2 16421 -0.0753 12.010000
16422 ca 16290 TPSG CA1 16422 -0.361 12.010000
16423 si 16290 TPSG Si 16423 1.1 28.085000
16424 ca 16290 TPSG CA6 16424 -0.0753 12.010000
16425 ha 16290 TPSG HH6 16425 0.1332 1.008000
16426 ca 16290 TPSG CA5 16426 -0.1548 12.010000
16427 ha 16290 TPSG HA5 16427 0.1282 1.008000
16428 ca 16290 TPSG CA4 16428 -0.1028 12.010000
16429 ha 16290 TPSG HA4 16429 0.1262 1.008000
16430 ca 16290 TPSG CA3 16430 -0.1548 12.010000
16431 ha 16290 TPSG HA3 16431 0.1282 1.008000
16432 OA 16290 TPSG O1 16432 -0.675000 15.99940
16433 HG 16290 TPSG H6 16433 0.400000 2.01600
16434 ha 16291 TPSG HA2 16434 0.1332 1.008000
16435 ca 16291 TPSG CA2 16435 -0.0753 12.010000
16436 ca 16291 TPSG CA1 16436 -0.361 12.010000
16437 si 16291 TPSG Si 16437 1.1 28.085000
16438 ca 16291 TPSG CA6 16438 -0.0753 12.010000
16439 ha 16291 TPSG HH6 16439 0.1332 1.008000
16440 ca 16291 TPSG CA5 16440 -0.1548 12.010000
16441 ha 16291 TPSG HA5 16441 0.1282 1.008000
16442 ca 16291 TPSG CA4 16442 -0.1028 12.010000
16443 ha 16291 TPSG HA4 16443 0.1262 1.008000
16444 ca 16291 TPSG CA3 16444 -0.1548 12.010000
16445 ha 16291 TPSG HA3 16445 0.1282 1.008000
16446 OA 16291 TPSG O1 16446 -0.675000 15.99940
16447 HG 16291 TPSG H6 16447 0.400000 2.01600
16448 ha 16292 TPSG HA2 16448 0.1332 1.008000
16449 ca 16292 TPSG CA2 16449 -0.0753 12.010000
16450 ca 16292 TPSG CA1 16450 -0.361 12.010000
16451 si 16292 TPSG Si 16451 1.1 28.085000
16452 ca 16292 TPSG CA6 16452 -0.0753 12.010000
16453 ha 16292 TPSG HH6 16453 0.1332 1.008000
16454 ca 16292 TPSG CA5 16454 -0.1548 12.010000
16455 ha 16292 TPSG HA5 16455 0.1282 1.008000
16456 ca 16292 TPSG CA4 16456 -0.1028 12.010000
16457 ha 16292 TPSG HA4 16457 0.1262 1.008000
16458 ca 16292 TPSG CA3 16458 -0.1548 12.010000
16459 ha 16292 TPSG HA3 16459 0.1282 1.008000
16460 OA 16292 TPSG O1 16460 -0.675000 15.99940
16461 HG 16292 TPSG H6 16461 0.400000 2.01600
16462 ha 16293 TPSG HA2 16462 0.1332 1.008000
16463 ca 16293 TPSG CA2 16463 -0.0753 12.010000
16464 ca 16293 TPSG CA1 16464 -0.361 12.010000
16465 si 16293 TPSG Si 16465 1.1 28.085000
16466 ca 16293 TPSG CA6 16466 -0.0753 12.010000
16467 ha 16293 TPSG HH6 16467 0.1332 1.008000
16468 ca 16293 TPSG CA5 16468 -0.1548 12.010000
16469 ha 16293 TPSG HA5 16469 0.1282 1.008000
16470 ca 16293 TPSG CA4 16470 -0.1028 12.010000
16471 ha 16293 TPSG HA4 16471 0.1262 1.008000
16472 ca 16293 TPSG CA3 16472 -0.1548 12.010000
16473 ha 16293 TPSG HA3 16473 0.1282 1.008000
16474 OA 16293 TPSG O1 16474 -0.675000 15.99940
16475 HG 16293 TPSG H6 16475 0.400000 2.01600
16476 ha 16294 TPSG HA2 16476 0.1332 1.008000
16477 ca 16294 TPSG CA2 16477 -0.0753 12.010000
16478 ca 16294 TPSG CA1 16478 -0.361 12.010000
16479 si 16294 TPSG Si 16479 1.1 28.085000
16480 ca 16294 TPSG CA6 16480 -0.0753 12.010000
16481 ha 16294 TPSG HH6 16481 0.1332 1.008000
16482 ca 16294 TPSG CA5 16482 -0.1548 12.010000
16483 ha 16294 TPSG HA5 16483 0.1282 1.008000
16484 ca 16294 TPSG CA4 16484 -0.1028 12.010000
16485 ha 16294 TPSG HA4 16485 0.1262 1.008000
16486 ca 16294 TPSG CA3 16486 -0.1548 12.010000
16487 ha 16294 TPSG HA3 16487 0.1282 1.008000
16488 OA 16294 TPSG O1 16488 -0.675000 15.99940
16489 HG 16294 TPSG H6 16489 0.400000 2.01600
16490 ha 16295 TPSG HA2 16490 0.1332 1.008000
16491 ca 16295 TPSG CA2 16491 -0.0753 12.010000
16492 ca 16295 TPSG CA1 16492 -0.361 12.010000
16493 si 16295 TPSG Si 16493 1.1 28.085000
16494 ca 16295 TPSG CA6 16494 -0.0753 12.010000
16495 ha 16295 TPSG HH6 16495 0.1332 1.008000
16496 ca 16295 TPSG CA5 16496 -0.1548 12.010000
16497 ha 16295 TPSG HA5 16497 0.1282 1.008000
16498 ca 16295 TPSG CA4 16498 -0.1028 12.010000
16499 ha 16295 TPSG HA4 16499 0.1262 1.008000
16500 ca 16295 TPSG CA3 16500 -0.1548 12.010000
16501 ha 16295 TPSG HA3 16501 0.1282 1.008000
16502 OA 16295 TPSG O1 16502 -0.675000 15.99940
16503 HG 16295 TPSG H6 16503 0.400000 2.01600
16504 ha 16296 TPSG HA2 16504 0.1332 1.008000
16505 ca 16296 TPSG CA2 16505 -0.0753 12.010000
16506 ca 16296 TPSG CA1 16506 -0.361 12.010000
16507 si 16296 TPSG Si 16507 1.1 28.085000
16508 ca 16296 TPSG CA6 16508 -0.0753 12.010000
16509 ha 16296 TPSG HH6 16509 0.1332 1.008000
16510 ca 16296 TPSG CA5 16510 -0.1548 12.010000
16511 ha 16296 TPSG HA5 16511 0.1282 1.008000
16512 ca 16296 TPSG CA4 16512 -0.1028 12.010000
16513 ha 16296 TPSG HA4 16513 0.1262 1.008000
16514 ca 16296 TPSG CA3 16514 -0.1548 12.010000
16515 ha 16296 TPSG HA3 16515 0.1282 1.008000
16516 OA 16296 TPSG O1 16516 -0.675000 15.99940
16517 HG 16296 TPSG H6 16517 0.400000 2.01600
16518 ha 16297 TPSG HA2 16518 0.1332 1.008000
16519 ca 16297 TPSG CA2 16519 -0.0753 12.010000
16520 ca 16297 TPSG CA1 16520 -0.361 12.010000
16521 si 16297 TPSG Si 16521 1.1 28.085000
16522 ca 16297 TPSG CA6 16522 -0.0753 12.010000
16523 ha 16297 TPSG HH6 16523 0.1332 1.008000
16524 ca 16297 TPSG CA5 16524 -0.1548 12.010000
16525 ha 16297 TPSG HA5 16525 0.1282 1.008000
16526 ca 16297 TPSG CA4 16526 -0.1028 12.010000
16527 ha 16297 TPSG HA4 16527 0.1262 1.008000
16528 ca 16297 TPSG CA3 16528 -0.1548 12.010000
16529 ha 16297 TPSG HA3 16529 0.1282 1.008000
16530 OA 16297 TPSG O1 16530 -0.675000 15.99940
16531 HG 16297 TPSG H6 16531 0.400000 2.01600
16532 ha 16298 TPSG HA2 16532 0.1332 1.008000
16533 ca 16298 TPSG CA2 16533 -0.0753 12.010000
16534 ca 16298 TPSG CA1 16534 -0.361 12.010000
16535 si 16298 TPSG Si 16535 1.1 28.085000
16536 ca 16298 TPSG CA6 16536 -0.0753 12.010000
16537 ha 16298 TPSG HH6 16537 0.1332 1.008000
16538 ca 16298 TPSG CA5 16538 -0.1548 12.010000
16539 ha 16298 TPSG HA5 16539 0.1282 1.008000
16540 ca 16298 TPSG CA4 16540 -0.1028 12.010000
16541 ha 16298 TPSG HA4 16541 0.1262 1.008000
16542 ca 16298 TPSG CA3 16542 -0.1548 12.010000
16543 ha 16298 TPSG HA3 16543 0.1282 1.008000
16544 OA 16298 TPSG O1 16544 -0.675000 15.99940
16545 HG 16298 TPSG H6 16545 0.400000 2.01600
16546 ha 16299 TPSG HA2 16546 0.1332 1.008000
16547 ca 16299 TPSG CA2 16547 -0.0753 12.010000
16548 ca 16299 TPSG CA1 16548 -0.361 12.010000
16549 si 16299 TPSG Si 16549 1.1 28.085000
16550 ca 16299 TPSG CA6 16550 -0.0753 12.010000
16551 ha 16299 TPSG HH6 16551 0.1332 1.008000
16552 ca 16299 TPSG CA5 16552 -0.1548 12.010000
16553 ha 16299 TPSG HA5 16553 0.1282 1.008000
16554 ca 16299 TPSG CA4 16554 -0.1028 12.010000
16555 ha 16299 TPSG HA4 16555 0.1262 1.008000
16556 ca 16299 TPSG CA3 16556 -0.1548 12.010000
16557 ha 16299 TPSG HA3 16557 0.1282 1.008000
16558 OA 16299 TPSG O1 16558 -0.675000 15.99940
16559 HG 16299 TPSG H6 16559 0.400000 2.01600
16560 ha 16300 TPSG HA2 16560 0.1332 1.008000
16561 ca 16300 TPSG CA2 16561 -0.0753 12.010000
16562 ca 16300 TPSG CA1 16562 -0.361 12.010000
16563 si 16300 TPSG Si 16563 1.1 28.085000
16564 ca 16300 TPSG CA6 16564 -0.0753 12.010000
16565 ha 16300 TPSG HH6 16565 0.1332 1.008000
16566 ca 16300 TPSG CA5 16566 -0.1548 12.010000
16567 ha 16300 TPSG HA5 16567 0.1282 1.008000
16568 ca 16300 TPSG CA4 16568 -0.1028 12.010000
16569 ha 16300 TPSG HA4 16569 0.1262 1.008000
16570 ca 16300 TPSG CA3 16570 -0.1548 12.010000
16571 ha 16300 TPSG HA3 16571 0.1282 1.008000
16572 OA 16300 TPSG O1 16572 -0.675000 15.99940
16573 HG 16300 TPSG H6 16573 0.400000 2.01600
16574 ha 16301 TPSG HA2 16574 0.1332 1.008000
16575 ca 16301 TPSG CA2 16575 -0.0753 12.010000
16576 ca 16301 TPSG CA1 16576 -0.361 12.010000
16577 si 16301 TPSG Si 16577 1.1 28.085000
16578 ca 16301 TPSG CA6 16578 -0.0753 12.010000
16579 ha 16301 TPSG HH6 16579 0.1332 1.008000
16580 ca 16301 TPSG CA5 16580 -0.1548 12.010000
16581 ha 16301 TPSG HA5 16581 0.1282 1.008000
16582 ca 16301 TPSG CA4 16582 -0.1028 12.010000
16583 ha 16301 TPSG HA4 16583 0.1262 1.008000
16584 ca 16301 TPSG CA3 16584 -0.1548 12.010000
16585 ha 16301 TPSG HA3 16585 0.1282 1.008000
16586 OA 16301 TPSG O1 16586 -0.675000 15.99940
16587 HG 16301 TPSG H6 16587 0.400000 2.01600
16588 ha 16302 TPSG HA2 16588 0.1332 1.008000
16589 ca 16302 TPSG CA2 16589 -0.0753 12.010000
16590 ca 16302 TPSG CA1 16590 -0.361 12.010000
16591 si 16302 TPSG Si 16591 1.1 28.085000
16592 ca 16302 TPSG CA6 16592 -0.0753 12.010000
16593 ha 16302 TPSG HH6 16593 0.1332 1.008000
16594 ca 16302 TPSG CA5 16594 -0.1548 12.010000
16595 ha 16302 TPSG HA5 16595 0.1282 1.008000
16596 ca 16302 TPSG CA4 16596 -0.1028 12.010000
16597 ha 16302 TPSG HA4 16597 0.1262 1.008000
16598 ca 16302 TPSG CA3 16598 -0.1548 12.010000
16599 ha 16302 TPSG HA3 16599 0.1282 1.008000
16600 OA 16302 TPSG O1 16600 -0.675000 15.99940
16601 HG 16302 TPSG H6 16601 0.400000 2.01600
16602 ha 16303 TPSG HA2 16602 0.1332 1.008000
16603 ca 16303 TPSG CA2 16603 -0.0753 12.010000
16604 ca 16303 TPSG CA1 16604 -0.361 12.010000
16605 si 16303 TPSG Si 16605 1.1 28.085000
16606 ca 16303 TPSG CA6 16606 -0.0753 12.010000
16607 ha 16303 TPSG HH6 16607 0.1332 1.008000
16608 ca 16303 TPSG CA5 16608 -0.1548 12.010000
16609 ha 16303 TPSG HA5 16609 0.1282 1.008000
16610 ca 16303 TPSG CA4 16610 -0.1028 12.010000
16611 ha 16303 TPSG HA4 16611 0.1262 1.008000
16612 ca 16303 TPSG CA3 16612 -0.1548 12.010000
16613 ha 16303 TPSG HA3 16613 0.1282 1.008000
16614 OA 16303 TPSG O1 16614 -0.675000 15.99940
16615 HG 16303 TPSG H6 16615 0.400000 2.01600
16616 ha 16304 TPSG HA2 16616 0.1332 1.008000
16617 ca 16304 TPSG CA2 16617 -0.0753 12.010000
16618 ca 16304 TPSG CA1 16618 -0.361 12.010000
16619 si 16304 TPSG Si 16619 1.1 28.085000
16620 ca 16304 TPSG CA6 16620 -0.0753 12.010000
16621 ha 16304 TPSG HH6 16621 0.1332 1.008000
16622 ca 16304 TPSG CA5 16622 -0.1548 12.010000
16623 ha 16304 TPSG HA5 16623 0.1282 1.008000
16624 ca 16304 TPSG CA4 16624 -0.1028 12.010000
16625 ha 16304 TPSG HA4 16625 0.1262 1.008000
16626 ca 16304 TPSG CA3 16626 -0.1548 12.010000
16627 ha 16304 TPSG HA3 16627 0.1282 1.008000
16628 OA 16304 TPSG O1 16628 -0.675000 15.99940
16629 HG 16304 TPSG H6 16629 0.400000 2.01600
16630 ha 16305 TPSG HA2 16630 0.1332 1.008000
16631 ca 16305 TPSG CA2 16631 -0.0753 12.010000
16632 ca 16305 TPSG CA1 16632 -0.361 12.010000
16633 si 16305 TPSG Si 16633 1.1 28.085000
16634 ca 16305 TPSG CA6 16634 -0.0753 12.010000
16635 ha 16305 TPSG HH6 16635 0.1332 1.008000
16636 ca 16305 TPSG CA5 16636 -0.1548 12.010000
16637 ha 16305 TPSG HA5 16637 0.1282 1.008000
16638 ca 16305 TPSG CA4 16638 -0.1028 12.010000
16639 ha 16305 TPSG HA4 16639 0.1262 1.008000
16640 ca 16305 TPSG CA3 16640 -0.1548 12.010000
16641 ha 16305 TPSG HA3 16641 0.1282 1.008000
16642 OA 16305 TPSG O1 16642 -0.675000 15.99940
16643 HG 16305 TPSG H6 16643 0.400000 2.01600
16644 ha 16306 TPSG HA2 16644 0.1332 1.008000
16645 ca 16306 TPSG CA2 16645 -0.0753 12.010000
16646 ca 16306 TPSG CA1 16646 -0.361 12.010000
16647 si 16306 TPSG Si 16647 1.1 28.085000
16648 ca 16306 TPSG CA6 16648 -0.0753 12.010000
16649 ha 16306 TPSG HH6 16649 0.1332 1.008000
16650 ca 16306 TPSG CA5 16650 -0.1548 12.010000
16651 ha 16306 TPSG HA5 16651 0.1282 1.008000
16652 ca 16306 TPSG CA4 16652 -0.1028 12.010000
16653 ha 16306 TPSG HA4 16653 0.1262 1.008000
16654 ca 16306 TPSG CA3 16654 -0.1548 12.010000
16655 ha 16306 TPSG HA3 16655 0.1282 1.008000
16656 OA 16306 TPSG O1 16656 -0.675000 15.99940
16657 HG 16306 TPSG H6 16657 0.400000 2.01600
16658 ha 16307 TPSG HA2 16658 0.1332 1.008000
16659 ca 16307 TPSG CA2 16659 -0.0753 12.010000
16660 ca 16307 TPSG CA1 16660 -0.361 12.010000
16661 si 16307 TPSG Si 16661 1.1 28.085000
16662 ca 16307 TPSG CA6 16662 -0.0753 12.010000
16663 ha 16307 TPSG HH6 16663 0.1332 1.008000
16664 ca 16307 TPSG CA5 16664 -0.1548 12.010000
16665 ha 16307 TPSG HA5 16665 0.1282 1.008000
16666 ca 16307 TPSG CA4 16666 -0.1028 12.010000
16667 ha 16307 TPSG HA4 16667 0.1262 1.008000
16668 ca 16307 TPSG CA3 16668 -0.1548 12.010000
16669 ha 16307 TPSG HA3 16669 0.1282 1.008000
16670 OA 16307 TPSG O1 16670 -0.675000 15.99940
16671 HG 16307 TPSG H6 16671 0.400000 2.01600
16672 ha 16308 TPSG HA2 16672 0.1332 1.008000
16673 ca 16308 TPSG CA2 16673 -0.0753 12.010000
16674 ca 16308 TPSG CA1 16674 -0.361 12.010000
16675 si 16308 TPSG Si 16675 1.1 28.085000
16676 ca 16308 TPSG CA6 16676 -0.0753 12.010000
16677 ha 16308 TPSG HH6 16677 0.1332 1.008000
16678 ca 16308 TPSG CA5 16678 -0.1548 12.010000
16679 ha 16308 TPSG HA5 16679 0.1282 1.008000
16680 ca 16308 TPSG CA4 16680 -0.1028 12.010000
16681 ha 16308 TPSG HA4 16681 0.1262 1.008000
16682 ca 16308 TPSG CA3 16682 -0.1548 12.010000
16683 ha 16308 TPSG HA3 16683 0.1282 1.008000
16684 OA 16308 TPSG O1 16684 -0.675000 15.99940
16685 HG 16308 TPSG H6 16685 0.400000 2.01600
16686 ha 16309 TPSG HA2 16686 0.1332 1.008000
16687 ca 16309 TPSG CA2 16687 -0.0753 12.010000
16688 ca 16309 TPSG CA1 16688 -0.361 12.010000
16689 si 16309 TPSG Si 16689 1.1 28.085000
16690 ca 16309 TPSG CA6 16690 -0.0753 12.010000
16691 ha 16309 TPSG HH6 16691 0.1332 1.008000
16692 ca 16309 TPSG CA5 16692 -0.1548 12.010000
16693 ha 16309 TPSG HA5 16693 0.1282 1.008000
16694 ca 16309 TPSG CA4 16694 -0.1028 12.010000
16695 ha 16309 TPSG HA4 16695 0.1262 1.008000
16696 ca 16309 TPSG CA3 16696 -0.1548 12.010000
16697 ha 16309 TPSG HA3 16697 0.1282 1.008000
16698 OA 16309 TPSG O1 16698 -0.675000 15.99940
16699 HG 16309 TPSG H6 16699 0.400000 2.01600
16700 ha 16310 TPSG HA2 16700 0.1332 1.008000
16701 ca 16310 TPSG CA2 16701 -0.0753 12.010000
16702 ca 16310 TPSG CA1 16702 -0.361 12.010000
16703 si 16310 TPSG Si 16703 1.1 28.085000
16704 ca 16310 TPSG CA6 16704 -0.0753 12.010000
16705 ha 16310 TPSG HH6 16705 0.1332 1.008000
16706 ca 16310 TPSG CA5 16706 -0.1548 12.010000
16707 ha 16310 TPSG HA5 16707 0.1282 1.008000
16708 ca 16310 TPSG CA4 16708 -0.1028 12.010000
16709 ha 16310 TPSG HA4 16709 0.1262 1.008000
16710 ca 16310 TPSG CA3 16710 -0.1548 12.010000
16711 ha 16310 TPSG HA3 16711 0.1282 1.008000
16712 OA 16310 TPSG O1 16712 -0.675000 15.99940
16713 HG 16310 TPSG H6 16713 0.400000 2.01600
16714 ha 16311 TPSG HA2 16714 0.1332 1.008000
16715 ca 16311 TPSG CA2 16715 -0.0753 12.010000
16716 ca 16311 TPSG CA1 16716 -0.361 12.010000
16717 si 16311 TPSG Si 16717 1.1 28.085000
16718 ca 16311 TPSG CA6 16718 -0.0753 12.010000
16719 ha 16311 TPSG HH6 16719 0.1332 1.008000
16720 ca 16311 TPSG CA5 16720 -0.1548 12.010000
16721 ha 16311 TPSG HA5 16721 0.1282 1.008000
16722 ca 16311 TPSG CA4 16722 -0.1028 12.010000
16723 ha 16311 TPSG HA4 16723 0.1262 1.008000
16724 ca 16311 TPSG CA3 16724 -0.1548 12.010000
16725 ha 16311 TPSG HA3 16725 0.1282 1.008000
16726 OA 16311 TPSG O1 16726 -0.675000 15.99940
16727 HG 16311 TPSG H6 16727 0.400000 2.01600
16728 ha 16312 TPSG HA2 16728 0.1332 1.008000
16729 ca 16312 TPSG CA2 16729 -0.0753 12.010000
16730 ca 16312 TPSG CA1 16730 -0.361 12.010000
16731 si 16312 TPSG Si 16731 1.1 28.085000
16732 ca 16312 TPSG CA6 16732 -0.0753 12.010000
16733 ha 16312 TPSG HH6 16733 0.1332 1.008000
16734 ca 16312 TPSG CA5 16734 -0.1548 12.010000
16735 ha 16312 TPSG HA5 16735 0.1282 1.008000
16736 ca 16312 TPSG CA4 16736 -0.1028 12.010000
16737 ha 16312 TPSG HA4 16737 0.1262 1.008000
16738 ca 16312 TPSG CA3 16738 -0.1548 12.010000
16739 ha 16312 TPSG HA3 16739 0.1282 1.008000
16740 OA 16312 TPSG O1 16740 -0.675000 15.99940
16741 HG 16312 TPSG H6 16741 0.400000 2.01600
16742 ha 16313 TPSG HA2 16742 0.1332 1.008000
16743 ca 16313 TPSG CA2 16743 -0.0753 12.010000
16744 ca 16313 TPSG CA1 16744 -0.361 12.010000
16745 si 16313 TPSG Si 16745 1.1 28.085000
16746 ca 16313 TPSG CA6 16746 -0.0753 12.010000
16747 ha 16313 TPSG HH6 16747 0.1332 1.008000
16748 ca 16313 TPSG CA5 16748 -0.1548 12.010000
16749 ha 16313 TPSG HA5 16749 0.1282 1.008000
16750 ca 16313 TPSG CA4 16750 -0.1028 12.010000
16751 ha 16313 TPSG HA4 16751 0.1262 1.008000
16752 ca 16313 TPSG CA3 16752 -0.1548 12.010000
16753 ha 16313 TPSG HA3 16753 0.1282 1.008000
16754 OA 16313 TPSG O1 16754 -0.675000 15.99940
16755 HG 16313 TPSG H6 16755 0.400000 2.01600
16756 ha 16314 TPSG HA2 16756 0.1332 1.008000
16757 ca 16314 TPSG CA2 16757 -0.0753 12.010000
16758 ca 16314 TPSG CA1 16758 -0.361 12.010000
16759 si 16314 TPSG Si 16759 1.1 28.085000
16760 ca 16314 TPSG CA6 16760 -0.0753 12.010000
16761 ha 16314 TPSG HH6 16761 0.1332 1.008000
16762 ca 16314 TPSG CA5 16762 -0.1548 12.010000
16763 ha 16314 TPSG HA5 16763 0.1282 1.008000
16764 ca 16314 TPSG CA4 16764 -0.1028 12.010000
16765 ha 16314 TPSG HA4 16765 0.1262 1.008000
16766 ca 16314 TPSG CA3 16766 -0.1548 12.010000
16767 ha 16314 TPSG HA3 16767 0.1282 1.008000
16768 OA 16314 TPSG O1 16768 -0.675000 15.99940
16769 HG 16314 TPSG H6 16769 0.400000 2.01600
16770 ha 16315 TPSG HA2 16770 0.1332 1.008000
16771 ca 16315 TPSG CA2 16771 -0.0753 12.010000
16772 ca 16315 TPSG CA1 16772 -0.361 12.010000
16773 si 16315 TPSG Si 16773 1.1 28.085000
16774 ca 16315 TPSG CA6 16774 -0.0753 12.010000
16775 ha 16315 TPSG HH6 16775 0.1332 1.008000
16776 ca 16315 TPSG CA5 16776 -0.1548 12.010000
16777 ha 16315 TPSG HA5 16777 0.1282 1.008000
16778 ca 16315 TPSG CA4 16778 -0.1028 12.010000
16779 ha 16315 TPSG HA4 16779 0.1262 1.008000
16780 ca 16315 TPSG CA3 16780 -0.1548 12.010000
16781 ha 16315 TPSG HA3 16781 0.1282 1.008000
16782 OA 16315 TPSG O1 16782 -0.675000 15.99940
16783 HG 16315 TPSG H6 16783 0.400000 2.01600
16784 ha 16316 TPSG HA2 16784 0.1332 1.008000
16785 ca 16316 TPSG CA2 16785 -0.0753 12.010000
16786 ca 16316 TPSG CA1 16786 -0.361 12.010000
16787 si 16316 TPSG Si 16787 1.1 28.085000
16788 ca 16316 TPSG CA6 16788 -0.0753 12.010000
16789 ha 16316 TPSG HH6 16789 0.1332 1.008000
16790 ca 16316 TPSG CA5 16790 -0.1548 12.010000
16791 ha 16316 TPSG HA5 16791 0.1282 1.008000
16792 ca 16316 TPSG CA4 16792 -0.1028 12.010000
16793 ha 16316 TPSG HA4 16793 0.1262 1.008000
16794 ca 16316 TPSG CA3 16794 -0.1548 12.010000
16795 ha 16316 TPSG HA3 16795 0.1282 1.008000
16796 OA 16316 TPSG O1 16796 -0.675000 15.99940
16797 HG 16316 TPSG H6 16797 0.400000 2.01600
16798 ha 16317 TPSG HA2 16798 0.1332 1.008000
16799 ca 16317 TPSG CA2 16799 -0.0753 12.010000
16800 ca 16317 TPSG CA1 16800 -0.361 12.010000
16801 si 16317 TPSG Si 16801 1.1 28.085000
16802 ca 16317 TPSG CA6 16802 -0.0753 12.010000
16803 ha 16317 TPSG HH6 16803 0.1332 1.008000
16804 ca 16317 TPSG CA5 16804 -0.1548 12.010000
16805 ha 16317 TPSG HA5 16805 0.1282 1.008000
16806 ca 16317 TPSG CA4 16806 -0.1028 12.010000
16807 ha 16317 TPSG HA4 16807 0.1262 1.008000
16808 ca 16317 TPSG CA3 16808 -0.1548 12.010000
16809 ha 16317 TPSG HA3 16809 0.1282 1.008000
16810 OA 16317 TPSG O1 16810 -0.675000 15.99940
16811 HG 16317 TPSG H6 16811 0.400000 2.01600
16812 ha 16318 TPSG HA2 16812 0.1332 1.008000
16813 ca 16318 TPSG CA2 16813 -0.0753 12.010000
16814 ca 16318 TPSG CA1 16814 -0.361 12.010000
16815 si 16318 TPSG Si 16815 1.1 28.085000
16816 ca 16318 TPSG CA6 16816 -0.0753 12.010000
16817 ha 16318 TPSG HH6 16817 0.1332 1.008000
16818 ca 16318 TPSG CA5 16818 -0.1548 12.010000
16819 ha 16318 TPSG HA5 16819 0.1282 1.008000
16820 ca 16318 TPSG CA4 16820 -0.1028 12.010000
16821 ha 16318 TPSG HA4 16821 0.1262 1.008000
16822 ca 16318 TPSG CA3 16822 -0.1548 12.010000
16823 ha 16318 TPSG HA3 16823 0.1282 1.008000
16824 OA 16318 TPSG O1 16824 -0.675000 15.99940
16825 HG 16318 TPSG H6 16825 0.400000 2.01600
16826 ha 16319 TPSG HA2 16826 0.1332 1.008000
16827 ca 16319 TPSG CA2 16827 -0.0753 12.010000
16828 ca 16319 TPSG CA1 16828 -0.361 12.010000
16829 si 16319 TPSG Si 16829 1.1 28.085000
16830 ca 16319 TPSG CA6 16830 -0.0753 12.010000
16831 ha 16319 TPSG HH6 16831 0.1332 1.008000
16832 ca 16319 TPSG CA5 16832 -0.1548 12.010000
16833 ha 16319 TPSG HA5 16833 0.1282 1.008000
16834 ca 16319 TPSG CA4 16834 -0.1028 12.010000
16835 ha 16319 TPSG HA4 16835 0.1262 1.008000
16836 ca 16319 TPSG CA3 16836 -0.1548 12.010000
16837 ha 16319 TPSG HA3 16837 0.1282 1.008000
16838 OA 16319 TPSG O1 16838 -0.675000 15.99940
16839 HG 16319 TPSG H6 16839 0.400000 2.01600
16840 ha 16320 TPSG HA2 16840 0.1332 1.008000
16841 ca 16320 TPSG CA2 16841 -0.0753 12.010000
16842 ca 16320 TPSG CA1 16842 -0.361 12.010000
16843 si 16320 TPSG Si 16843 1.1 28.085000
16844 ca 16320 TPSG CA6 16844 -0.0753 12.010000
16845 ha 16320 TPSG HH6 16845 0.1332 1.008000
16846 ca 16320 TPSG CA5 16846 -0.1548 12.010000
16847 ha 16320 TPSG HA5 16847 0.1282 1.008000
16848 ca 16320 TPSG CA4 16848 -0.1028 12.010000
16849 ha 16320 TPSG HA4 16849 0.1262 1.008000
16850 ca 16320 TPSG CA3 16850 -0.1548 12.010000
16851 ha 16320 TPSG HA3 16851 0.1282 1.008000
16852 OA 16320 TPSG O1 16852 -0.675000 15.99940
16853 HG 16320 TPSG H6 16853 0.400000 2.01600
16854 ha 16321 TPSG HA2 16854 0.1332 1.008000
16855 ca 16321 TPSG CA2 16855 -0.0753 12.010000
16856 ca 16321 TPSG CA1 16856 -0.361 12.010000
16857 si 16321 TPSG Si 16857 1.1 28.085000
16858 ca 16321 TPSG CA6 16858 -0.0753 12.010000
16859 ha 16321 TPSG HH6 16859 0.1332 1.008000
16860 ca 16321 TPSG CA5 16860 -0.1548 12.010000
16861 ha 16321 TPSG HA5 16861 0.1282 1.008000
16862 ca 16321 TPSG CA4 16862 -0.1028 12.010000
16863 ha 16321 TPSG HA4 16863 0.1262 1.008000
16864 ca 16321 TPSG CA3 16864 -0.1548 12.010000
16865 ha 16321 TPSG HA3 16865 0.1282 1.008000
16866 OA 16321 TPSG O1 16866 -0.675000 15.99940
16867 HG 16321 TPSG H6 16867 0.400000 2.01600
16868 ha 16322 TPSG HA2 16868 0.1332 1.008000
16869 ca 16322 TPSG CA2 16869 -0.0753 12.010000
16870 ca 16322 TPSG CA1 16870 -0.361 12.010000
16871 si 16322 TPSG Si 16871 1.1 28.085000
16872 ca 16322 TPSG CA6 16872 -0.0753 12.010000
16873 ha 16322 TPSG HH6 16873 0.1332 1.008000
16874 ca 16322 TPSG CA5 16874 -0.1548 12.010000
16875 ha 16322 TPSG HA5 16875 0.1282 1.008000
16876 ca 16322 TPSG CA4 16876 -0.1028 12.010000
16877 ha 16322 TPSG HA4 16877 0.1262 1.008000
16878 ca 16322 TPSG CA3 16878 -0.1548 12.010000
16879 ha 16322 TPSG HA3 16879 0.1282 1.008000
16880 OA 16322 TPSG O1 16880 -0.675000 15.99940
16881 HG 16322 TPSG H6 16881 0.400000 2.01600
16882 ha 16323 TPSG HA2 16882 0.1332 1.008000
16883 ca 16323 TPSG CA2 16883 -0.0753 12.010000
16884 ca 16323 TPSG CA1 16884 -0.361 12.010000
16885 si 16323 TPSG Si 16885 1.1 28.085000
16886 ca 16323 TPSG CA6 16886 -0.0753 12.010000
16887 ha 16323 TPSG HH6 16887 0.1332 1.008000
16888 ca 16323 TPSG CA5 16888 -0.1548 12.010000
16889 ha 16323 TPSG HA5 16889 0.1282 1.008000
16890 ca 16323 TPSG CA4 16890 -0.1028 12.010000
16891 ha 16323 TPSG HA4 16891 0.1262 1.008000
16892 ca 16323 TPSG CA3 16892 -0.1548 12.010000
16893 ha 16323 TPSG HA3 16893 0.1282 1.008000
16894 OA 16323 TPSG O1 16894 -0.675000 15.99940
16895 HG 16323 TPSG H6 16895 0.400000 2.01600
16896 ha 16324 TPSG HA2 16896 0.1332 1.008000
16897 ca 16324 TPSG CA2 16897 -0.0753 12.010000
16898 ca 16324 TPSG CA1 16898 -0.361 12.010000
16899 si 16324 TPSG Si 16899 1.1 28.085000
16900 ca 16324 TPSG CA6 16900 -0.0753 12.010000
16901 ha 16324 TPSG HH6 16901 0.1332 1.008000
16902 ca 16324 TPSG CA5 16902 -0.1548 12.010000
16903 ha 16324 TPSG HA5 16903 0.1282 1.008000
16904 ca 16324 TPSG CA4 16904 -0.1028 12.010000
16905 ha 16324 TPSG HA4 16905 0.1262 1.008000
16906 ca 16324 TPSG CA3 16906 -0.1548 12.010000
16907 ha 16324 TPSG HA3 16907 0.1282 1.008000
16908 OA 16324 TPSG O1 16908 -0.675000 15.99940
16909 HG 16324 TPSG H6 16909 0.400000 2.01600
16910 ha 16325 TPSG HA2 16910 0.1332 1.008000
16911 ca 16325 TPSG CA2 16911 -0.0753 12.010000
16912 ca 16325 TPSG CA1 16912 -0.361 12.010000
16913 si 16325 TPSG Si 16913 1.1 28.085000
16914 ca 16325 TPSG CA6 16914 -0.0753 12.010000
16915 ha 16325 TPSG HH6 16915 0.1332 1.008000
16916 ca 16325 TPSG CA5 16916 -0.1548 12.010000
16917 ha 16325 TPSG HA5 16917 0.1282 1.008000
16918 ca 16325 TPSG CA4 16918 -0.1028 12.010000
16919 ha 16325 TPSG HA4 16919 0.1262 1.008000
16920 ca 16325 TPSG CA3 16920 -0.1548 12.010000
16921 ha 16325 TPSG HA3 16921 0.1282 1.008000
16922 OA 16325 TPSG O1 16922 -0.675000 15.99940
16923 HG 16325 TPSG H6 16923 0.400000 2.01600
16924 ha 16326 TPSG HA2 16924 0.1332 1.008000
16925 ca 16326 TPSG CA2 16925 -0.0753 12.010000
16926 ca 16326 TPSG CA1 16926 -0.361 12.010000
16927 si 16326 TPSG Si 16927 1.1 28.085000
16928 ca 16326 TPSG CA6 16928 -0.0753 12.010000
16929 ha 16326 TPSG HH6 16929 0.1332 1.008000
16930 ca 16326 TPSG CA5 16930 -0.1548 12.010000
16931 ha 16326 TPSG HA5 16931 0.1282 1.008000
16932 ca 16326 TPSG CA4 16932 -0.1028 12.010000
16933 ha 16326 TPSG HA4 16933 0.1262 1.008000
16934 ca 16326 TPSG CA3 16934 -0.1548 12.010000
16935 ha 16326 TPSG HA3 16935 0.1282 1.008000
16936 OA 16326 TPSG O1 16936 -0.675000 15.99940
16937 HG 16326 TPSG H6 16937 0.400000 2.01600
16938 ha 16327 TPSG HA2 16938 0.1332 1.008000
16939 ca 16327 TPSG CA2 16939 -0.0753 12.010000
16940 ca 16327 TPSG CA1 16940 -0.361 12.010000
16941 si 16327 TPSG Si 16941 1.1 28.085000
16942 ca 16327 TPSG CA6 16942 -0.0753 12.010000
16943 ha 16327 TPSG HH6 16943 0.1332 1.008000
16944 ca 16327 TPSG CA5 16944 -0.1548 12.010000
16945 ha 16327 TPSG HA5 16945 0.1282 1.008000
16946 ca 16327 TPSG CA4 16946 -0.1028 12.010000
16947 ha 16327 TPSG HA4 16947 0.1262 1.008000
16948 ca 16327 TPSG CA3 16948 -0.1548 12.010000
16949 ha 16327 TPSG HA3 16949 0.1282 1.008000
16950 OA 16327 TPSG O1 16950 -0.675000 15.99940
16951 HG 16327 TPSG H6 16951 0.400000 2.01600
16952 ha 16328 TPSG HA2 16952 0.1332 1.008000
16953 ca 16328 TPSG CA2 16953 -0.0753 12.010000
16954 ca 16328 TPSG CA1 16954 -0.361 12.010000
16955 si 16328 TPSG Si 16955 1.1 28.085000
16956 ca 16328 TPSG CA6 16956 -0.0753 12.010000
16957 ha 16328 TPSG HH6 16957 0.1332 1.008000
16958 ca 16328 TPSG CA5 16958 -0.1548 12.010000
16959 ha 16328 TPSG HA5 16959 0.1282 1.008000
16960 ca 16328 TPSG CA4 16960 -0.1028 12.010000
16961 ha 16328 TPSG HA4 16961 0.1262 1.008000
16962 ca 16328 TPSG CA3 16962 -0.1548 12.010000
16963 ha 16328 TPSG HA3 16963 0.1282 1.008000
16964 OA 16328 TPSG O1 16964 -0.675000 15.99940
16965 HG 16328 TPSG H6 16965 0.400000 2.01600
16966 ha 16329 TPSG HA2 16966 0.1332 1.008000
16967 ca 16329 TPSG CA2 16967 -0.0753 12.010000
16968 ca 16329 TPSG CA1 16968 -0.361 12.010000
16969 si 16329 TPSG Si 16969 1.1 28.085000
16970 ca 16329 TPSG CA6 16970 -0.0753 12.010000
16971 ha 16329 TPSG HH6 16971 0.1332 1.008000
16972 ca 16329 TPSG CA5 16972 -0.1548 12.010000
16973 ha 16329 TPSG HA5 16973 0.1282 1.008000
16974 ca 16329 TPSG CA4 16974 -0.1028 12.010000
16975 ha 16329 TPSG HA4 16975 0.1262 1.008000
16976 ca 16329 TPSG CA3 16976 -0.1548 12.010000
16977 ha 16329 TPSG HA3 16977 0.1282 1.008000
16978 OA 16329 TPSG O1 16978 -0.675000 15.99940
16979 HG 16329 TPSG H6 16979 0.400000 2.01600
16980 ha 16330 TPSG HA2 16980 0.1332 1.008000
16981 ca 16330 TPSG CA2 16981 -0.0753 12.010000
16982 ca 16330 TPSG CA1 16982 -0.361 12.010000
16983 si 16330 TPSG Si 16983 1.1 28.085000
16984 ca 16330 TPSG CA6 16984 -0.0753 12.010000
16985 ha 16330 TPSG HH6 16985 0.1332 1.008000
16986 ca 16330 TPSG CA5 16986 -0.1548 12.010000
16987 ha 16330 TPSG HA5 16987 0.1282 1.008000
16988 ca 16330 TPSG CA4 16988 -0.1028 12.010000
16989 ha 16330 TPSG HA4 16989 0.1262 1.008000
16990 ca 16330 TPSG CA3 16990 -0.1548 12.010000
16991 ha 16330 TPSG HA3 16991 0.1282 1.008000
16992 OA 16330 TPSG O1 16992 -0.675000 15.99940
16993 HG 16330 TPSG H6 16993 0.400000 2.01600
16994 ha 16331 TPSG HA2 16994 0.1332 1.008000
16995 ca 16331 TPSG CA2 16995 -0.0753 12.010000
16996 ca 16331 TPSG CA1 16996 -0.361 12.010000
16997 si 16331 TPSG Si 16997 1.1 28.085000
16998 ca 16331 TPSG CA6 16998 -0.0753 12.010000
16999 ha 16331 TPSG HH6 16999 0.1332 1.008000
17000 ca 16331 TPSG CA5 17000 -0.1548 12.010000
17001 ha 16331 TPSG HA5 17001 0.1282 1.008000
17002 ca 16331 TPSG CA4 17002 -0.1028 12.010000
17003 ha 16331 TPSG HA4 17003 0.1262 1.008000
17004 ca 16331 TPSG CA3 17004 -0.1548 12.010000
17005 ha 16331 TPSG HA3 17005 0.1282 1.008000
17006 OA 16331 TPSG O1 17006 -0.675000 15.99940
17007 HG 16331 TPSG H6 17007 0.400000 2.01600
17008 ha 16332 TPSG HA2 17008 0.1332 1.008000
17009 ca 16332 TPSG CA2 17009 -0.0753 12.010000
17010 ca 16332 TPSG CA1 17010 -0.361 12.010000
17011 si 16332 TPSG Si 17011 1.1 28.085000
17012 ca 16332 TPSG CA6 17012 -0.0753 12.010000
17013 ha 16332 TPSG HH6 17013 0.1332 1.008000
17014 ca 16332 TPSG CA5 17014 -0.1548 12.010000
17015 ha 16332 TPSG HA5 17015 0.1282 1.008000
17016 ca 16332 TPSG CA4 17016 -0.1028 12.010000
17017 ha 16332 TPSG HA4 17017 0.1262 1.008000
17018 ca 16332 TPSG CA3 17018 -0.1548 12.010000
17019 ha 16332 TPSG HA3 17019 0.1282 1.008000
17020 OA 16332 TPSG O1 17020 -0.675000 15.99940
17021 HG 16332 TPSG H6 17021 0.400000 2.01600
17022 ha 16333 TPSG HA2 17022 0.1332 1.008000
17023 ca 16333 TPSG CA2 17023 -0.0753 12.010000
17024 ca 16333 TPSG CA1 17024 -0.361 12.010000
17025 si 16333 TPSG Si 17025 1.1 28.085000
17026 ca 16333 TPSG CA6 17026 -0.0753 12.010000
17027 ha 16333 TPSG HH6 17027 0.1332 1.008000
17028 ca 16333 TPSG CA5 17028 -0.1548 12.010000
17029 ha 16333 TPSG HA5 17029 0.1282 1.008000
17030 ca 16333 TPSG CA4 17030 -0.1028 12.010000
17031 ha 16333 TPSG HA4 17031 0.1262 1.008000
17032 ca 16333 TPSG CA3 17032 -0.1548 12.010000
17033 ha 16333 TPSG HA3 17033 0.1282 1.008000
17034 OA 16333 TPSG O1 17034 -0.675000 15.99940
17035 HG 16333 TPSG H6 17035 0.400000 2.01600
17036 ha 16334 TPSG HA2 17036 0.1332 1.008000
17037 ca 16334 TPSG CA2 17037 -0.0753 12.010000
17038 ca 16334 TPSG CA1 17038 -0.361 12.010000
17039 si 16334 TPSG Si 17039 1.1 28.085000
17040 ca 16334 TPSG CA6 17040 -0.0753 12.010000
17041 ha 16334 TPSG HH6 17041 0.1332 1.008000
17042 ca 16334 TPSG CA5 17042 -0.1548 12.010000
17043 ha 16334 TPSG HA5 17043 0.1282 1.008000
17044 ca 16334 TPSG CA4 17044 -0.1028 12.010000
17045 ha 16334 TPSG HA4 17045 0.1262 1.008000
17046 ca 16334 TPSG CA3 17046 -0.1548 12.010000
17047 ha 16334 TPSG HA3 17047 0.1282 1.008000
17048 OA 16334 TPSG O1 17048 -0.675000 15.99940
17049 HG 16334 TPSG H6 17049 0.400000 2.01600
17050 ha 16335 TPSG HA2 17050 0.1332 1.008000
17051 ca 16335 TPSG CA2 17051 -0.0753 12.010000
17052 ca 16335 TPSG CA1 17052 -0.361 12.010000
17053 si 16335 TPSG Si 17053 1.1 28.085000
17054 ca 16335 TPSG CA6 17054 -0.0753 12.010000
17055 ha 16335 TPSG HH6 17055 0.1332 1.008000
17056 ca 16335 TPSG CA5 17056 -0.1548 12.010000
17057 ha 16335 TPSG HA5 17057 0.1282 1.008000
17058 ca 16335 TPSG CA4 17058 -0.1028 12.010000
17059 ha 16335 TPSG HA4 17059 0.1262 1.008000
17060 ca 16335 TPSG CA3 17060 -0.1548 12.010000
17061 ha 16335 TPSG HA3 17061 0.1282 1.008000
17062 OA 16335 TPSG O1 17062 -0.675000 15.99940
17063 HG 16335 TPSG H6 17063 0.400000 2.01600
17064 ha 16336 TPSG HA2 17064 0.1332 1.008000
17065 ca 16336 TPSG CA2 17065 -0.0753 12.010000
17066 ca 16336 TPSG CA1 17066 -0.361 12.010000
17067 si 16336 TPSG Si 17067 1.1 28.085000
17068 ca 16336 TPSG CA6 17068 -0.0753 12.010000
17069 ha 16336 TPSG HH6 17069 0.1332 1.008000
17070 ca 16336 TPSG CA5 17070 -0.1548 12.010000
17071 ha 16336 TPSG HA5 17071 0.1282 1.008000
17072 ca 16336 TPSG CA4 17072 -0.1028 12.010000
17073 ha 16336 TPSG HA4 17073 0.1262 1.008000
17074 ca 16336 TPSG CA3 17074 -0.1548 12.010000
17075 ha 16336 TPSG HA3 17075 0.1282 1.008000
17076 OA 16336 TPSG O1 17076 -0.675000 15.99940
17077 HG 16336 TPSG H6 17077 0.400000 2.01600
17078 ha 16337 TPSG HA2 17078 0.1332 1.008000
17079 ca 16337 TPSG CA2 17079 -0.0753 12.010000
17080 ca 16337 TPSG CA1 17080 -0.361 12.010000
17081 si 16337 TPSG Si 17081 1.1 28.085000
17082 ca 16337 TPSG CA6 17082 -0.0753 12.010000
17083 ha 16337 TPSG HH6 17083 0.1332 1.008000
17084 ca 16337 TPSG CA5 17084 -0.1548 12.010000
17085 ha 16337 TPSG HA5 17085 0.1282 1.008000
17086 ca 16337 TPSG CA4 17086 -0.1028 12.010000
17087 ha 16337 TPSG HA4 17087 0.1262 1.008000
17088 ca 16337 TPSG CA3 17088 -0.1548 12.010000
17089 ha 16337 TPSG HA3 17089 0.1282 1.008000
17090 OA 16337 TPSG O1 17090 -0.675000 15.99940
17091 HG 16337 TPSG H6 17091 0.400000 2.01600
17092 ha 16338 TPSG HA2 17092 0.1332 1.008000
17093 ca 16338 TPSG CA2 17093 -0.0753 12.010000
17094 ca 16338 TPSG CA1 17094 -0.361 12.010000
17095 si 16338 TPSG Si 17095 1.1 28.085000
17096 ca 16338 TPSG CA6 17096 -0.0753 12.010000
17097 ha 16338 TPSG HH6 17097 0.1332 1.008000
17098 ca 16338 TPSG CA5 17098 -0.1548 12.010000
17099 ha 16338 TPSG HA5 17099 0.1282 1.008000
17100 ca 16338 TPSG CA4 17100 -0.1028 12.010000
17101 ha 16338 TPSG HA4 17101 0.1262 1.008000
17102 ca 16338 TPSG CA3 17102 -0.1548 12.010000
17103 ha 16338 TPSG HA3 17103 0.1282 1.008000
17104 OA 16338 TPSG O1 17104 -0.675000 15.99940
17105 HG 16338 TPSG H6 17105 0.400000 2.01600
17106 ha 16339 TPSG HA2 17106 0.1332 1.008000
17107 ca 16339 TPSG CA2 17107 -0.0753 12.010000
17108 ca 16339 TPSG CA1 17108 -0.361 12.010000
17109 si 16339 TPSG Si 17109 1.1 28.085000
17110 ca 16339 TPSG CA6 17110 -0.0753 12.010000
17111 ha 16339 TPSG HH6 17111 0.1332 1.008000
17112 ca 16339 TPSG CA5 17112 -0.1548 12.010000
17113 ha 16339 TPSG HA5 17113 0.1282 1.008000
17114 ca 16339 TPSG CA4 17114 -0.1028 12.010000
17115 ha 16339 TPSG HA4 17115 0.1262 1.008000
17116 ca 16339 TPSG CA3 17116 -0.1548 12.010000
17117 ha 16339 TPSG HA3 17117 0.1282 1.008000
17118 OA 16339 TPSG O1 17118 -0.675000 15.99940
17119 HG 16339 TPSG H6 17119 0.400000 2.01600
17120 ha 16340 TPSG HA2 17120 0.1332 1.008000
17121 ca 16340 TPSG CA2 17121 -0.0753 12.010000
17122 ca 16340 TPSG CA1 17122 -0.361 12.010000
17123 si 16340 TPSG Si 17123 1.1 28.085000
17124 ca 16340 TPSG CA6 17124 -0.0753 12.010000
17125 ha 16340 TPSG HH6 17125 0.1332 1.008000
17126 ca 16340 TPSG CA5 17126 -0.1548 12.010000
17127 ha 16340 TPSG HA5 17127 0.1282 1.008000
17128 ca 16340 TPSG CA4 17128 -0.1028 12.010000
17129 ha 16340 TPSG HA4 17129 0.1262 1.008000
17130 ca 16340 TPSG CA3 17130 -0.1548 12.010000
17131 ha 16340 TPSG HA3 17131 0.1282 1.008000
17132 OA 16340 TPSG O1 17132 -0.675000 15.99940
17133 HG 16340 TPSG H6 17133 0.400000 2.01600
17134 ha 16341 TPSG HA2 17134 0.1332 1.008000
17135 ca 16341 TPSG CA2 17135 -0.0753 12.010000
17136 ca 16341 TPSG CA1 17136 -0.361 12.010000
17137 si 16341 TPSG Si 17137 1.1 28.085000
17138 ca 16341 TPSG CA6 17138 -0.0753 12.010000
17139 ha 16341 TPSG HH6 17139 0.1332 1.008000
17140 ca 16341 TPSG CA5 17140 -0.1548 12.010000
17141 ha 16341 TPSG HA5 17141 0.1282 1.008000
17142 ca 16341 TPSG CA4 17142 -0.1028 12.010000
17143 ha 16341 TPSG HA4 17143 0.1262 1.008000
17144 ca 16341 TPSG CA3 17144 -0.1548 12.010000
17145 ha 16341 TPSG HA3 17145 0.1282 1.008000
17146 OA 16341 TPSG O1 17146 -0.675000 15.99940
17147 HG 16341 TPSG H6 17147 0.400000 2.01600
17148 ha 16342 TPSG HA2 17148 0.1332 1.008000
17149 ca 16342 TPSG CA2 17149 -0.0753 12.010000
17150 ca 16342 TPSG CA1 17150 -0.361 12.010000
17151 si 16342 TPSG Si 17151 1.1 28.085000
17152 ca 16342 TPSG CA6 17152 -0.0753 12.010000
17153 ha 16342 TPSG HH6 17153 0.1332 1.008000
17154 ca 16342 TPSG CA5 17154 -0.1548 12.010000
17155 ha 16342 TPSG HA5 17155 0.1282 1.008000
17156 ca 16342 TPSG CA4 17156 -0.1028 12.010000
17157 ha 16342 TPSG HA4 17157 0.1262 1.008000
17158 ca 16342 TPSG CA3 17158 -0.1548 12.010000
17159 ha 16342 TPSG HA3 17159 0.1282 1.008000
17160 OA 16342 TPSG O1 17160 -0.675000 15.99940
17161 HG 16342 TPSG H6 17161 0.400000 2.01600
17162 ha 16343 TPSG HA2 17162 0.1332 1.008000
17163 ca 16343 TPSG CA2 17163 -0.0753 12.010000
17164 ca 16343 TPSG CA1 17164 -0.361 12.010000
17165 si 16343 TPSG Si 17165 1.1 28.085000
17166 ca 16343 TPSG CA6 17166 -0.0753 12.010000
17167 ha 16343 TPSG HH6 17167 0.1332 1.008000
17168 ca 16343 TPSG CA5 17168 -0.1548 12.010000
17169 ha 16343 TPSG HA5 17169 0.1282 1.008000
17170 ca 16343 TPSG CA4 17170 -0.1028 12.010000
17171 ha 16343 TPSG HA4 17171 0.1262 1.008000
17172 ca 16343 TPSG CA3 17172 -0.1548 12.010000
17173 ha 16343 TPSG HA3 17173 0.1282 1.008000
17174 OA 16343 TPSG O1 17174 -0.675000 15.99940
17175 HG 16343 TPSG H6 17175 0.400000 2.01600
17176 ha 16344 TPSG HA2 17176 0.1332 1.008000
17177 ca 16344 TPSG CA2 17177 -0.0753 12.010000
17178 ca 16344 TPSG CA1 17178 -0.361 12.010000
17179 si 16344 TPSG Si 17179 1.1 28.085000
17180 ca 16344 TPSG CA6 17180 -0.0753 12.010000
17181 ha 16344 TPSG HH6 17181 0.1332 1.008000
17182 ca 16344 TPSG CA5 17182 -0.1548 12.010000
17183 ha 16344 TPSG HA5 17183 0.1282 1.008000
17184 ca 16344 TPSG CA4 17184 -0.1028 12.010000
17185 ha 16344 TPSG HA4 17185 0.1262 1.008000
17186 ca 16344 TPSG CA3 17186 -0.1548 12.010000
17187 ha 16344 TPSG HA3 17187 0.1282 1.008000
17188 OA 16344 TPSG O1 17188 -0.675000 15.99940
17189 HG 16344 TPSG H6 17189 0.400000 2.01600
17190 ha 16345 TPSG HA2 17190 0.1332 1.008000
17191 ca 16345 TPSG CA2 17191 -0.0753 12.010000
17192 ca 16345 TPSG CA1 17192 -0.361 12.010000
17193 si 16345 TPSG Si 17193 1.1 28.085000
17194 ca 16345 TPSG CA6 17194 -0.0753 12.010000
17195 ha 16345 TPSG HH6 17195 0.1332 1.008000
17196 ca 16345 TPSG CA5 17196 -0.1548 12.010000
17197 ha 16345 TPSG HA5 17197 0.1282 1.008000
17198 ca 16345 TPSG CA4 17198 -0.1028 12.010000
17199 ha 16345 TPSG HA4 17199 0.1262 1.008000
17200 ca 16345 TPSG CA3 17200 -0.1548 12.010000
17201 ha 16345 TPSG HA3 17201 0.1282 1.008000
17202 OA 16345 TPSG O1 17202 -0.675000 15.99940
17203 HG 16345 TPSG H6 17203 0.400000 2.01600
17204 ha 16346 TPSG HA2 17204 0.1332 1.008000
17205 ca 16346 TPSG CA2 17205 -0.0753 12.010000
17206 ca 16346 TPSG CA1 17206 -0.361 12.010000
17207 si 16346 TPSG Si 17207 1.1 28.085000
17208 ca 16346 TPSG CA6 17208 -0.0753 12.010000
17209 ha 16346 TPSG HH6 17209 0.1332 1.008000
17210 ca 16346 TPSG CA5 17210 -0.1548 12.010000
17211 ha 16346 TPSG HA5 17211 0.1282 1.008000
17212 ca 16346 TPSG CA4 17212 -0.1028 12.010000
17213 ha 16346 TPSG HA4 17213 0.1262 1.008000
17214 ca 16346 TPSG CA3 17214 -0.1548 12.010000
17215 ha 16346 TPSG HA3 17215 0.1282 1.008000
17216 OA 16346 TPSG O1 17216 -0.675000 15.99940
17217 HG 16346 TPSG H6 17217 0.400000 2.01600
17218 ha 16347 TPSG HA2 17218 0.1332 1.008000
17219 ca 16347 TPSG CA2 17219 -0.0753 12.010000
17220 ca 16347 TPSG CA1 17220 -0.361 12.010000
17221 si 16347 TPSG Si 17221 1.1 28.085000
17222 ca 16347 TPSG CA6 17222 -0.0753 12.010000
17223 ha 16347 TPSG HH6 17223 0.1332 1.008000
17224 ca 16347 TPSG CA5 17224 -0.1548 12.010000
17225 ha 16347 TPSG HA5 17225 0.1282 1.008000
17226 ca 16347 TPSG CA4 17226 -0.1028 12.010000
17227 ha 16347 TPSG HA4 17227 0.1262 1.008000
17228 ca 16347 TPSG CA3 17228 -0.1548 12.010000
17229 ha 16347 TPSG HA3 17229 0.1282 1.008000
17230 OA 16347 TPSG O1 17230 -0.675000 15.99940
17231 HG 16347 TPSG H6 17231 0.400000 2.01600
17232 ha 16348 TPSG HA2 17232 0.1332 1.008000
17233 ca 16348 TPSG CA2 17233 -0.0753 12.010000
17234 ca 16348 TPSG CA1 17234 -0.361 12.010000
17235 si 16348 TPSG Si 17235 1.1 28.085000
17236 ca 16348 TPSG CA6 17236 -0.0753 12.010000
17237 ha 16348 TPSG HH6 17237 0.1332 1.008000
17238 ca 16348 TPSG CA5 17238 -0.1548 12.010000
17239 ha 16348 TPSG HA5 17239 0.1282 1.008000
17240 ca 16348 TPSG CA4 17240 -0.1028 12.010000
17241 ha 16348 TPSG HA4 17241 0.1262 1.008000
17242 ca 16348 TPSG CA3 17242 -0.1548 12.010000
17243 ha 16348 TPSG HA3 17243 0.1282 1.008000
17244 OA 16348 TPSG O1 17244 -0.675000 15.99940
17245 HG 16348 TPSG H6 17245 0.400000 2.01600
17246 ha 16349 TPSG HA2 17246 0.1332 1.008000
17247 ca 16349 TPSG CA2 17247 -0.0753 12.010000
17248 ca 16349 TPSG CA1 17248 -0.361 12.010000
17249 si 16349 TPSG Si 17249 1.1 28.085000
17250 ca 16349 TPSG CA6 17250 -0.0753 12.010000
17251 ha 16349 TPSG HH6 17251 0.1332 1.008000
17252 ca 16349 TPSG CA5 17252 -0.1548 12.010000
17253 ha 16349 TPSG HA5 17253 0.1282 1.008000
17254 ca 16349 TPSG CA4 17254 -0.1028 12.010000
17255 ha 16349 TPSG HA4 17255 0.1262 1.008000
17256 ca 16349 TPSG CA3 17256 -0.1548 12.010000
17257 ha 16349 TPSG HA3 17257 0.1282 1.008000
17258 OA 16349 TPSG O1 17258 -0.675000 15.99940
17259 HG 16349 TPSG H6 17259 0.400000 2.01600
17260 ha 16350 TPSG HA2 17260 0.1332 1.008000
17261 ca 16350 TPSG CA2 17261 -0.0753 12.010000
17262 ca 16350 TPSG CA1 17262 -0.361 12.010000
17263 si 16350 TPSG Si 17263 1.1 28.085000
17264 ca 16350 TPSG CA6 17264 -0.0753 12.010000
17265 ha 16350 TPSG HH6 17265 0.1332 1.008000
17266 ca 16350 TPSG CA5 17266 -0.1548 12.010000
17267 ha 16350 TPSG HA5 17267 0.1282 1.008000
17268 ca 16350 TPSG CA4 17268 -0.1028 12.010000
17269 ha 16350 TPSG HA4 17269 0.1262 1.008000
17270 ca 16350 TPSG CA3 17270 -0.1548 12.010000
17271 ha 16350 TPSG HA3 17271 0.1282 1.008000
17272 OA 16350 TPSG O1 17272 -0.675000 15.99940
17273 HG 16350 TPSG H6 17273 0.400000 2.01600
17274 ha 16351 TPSG HA2 17274 0.1332 1.008000
17275 ca 16351 TPSG CA2 17275 -0.0753 12.010000
17276 ca 16351 TPSG CA1 17276 -0.361 12.010000
17277 si 16351 TPSG Si 17277 1.1 28.085000
17278 ca 16351 TPSG CA6 17278 -0.0753 12.010000
17279 ha 16351 TPSG HH6 17279 0.1332 1.008000
17280 ca 16351 TPSG CA5 17280 -0.1548 12.010000
17281 ha 16351 TPSG HA5 17281 0.1282 1.008000
17282 ca 16351 TPSG CA4 17282 -0.1028 12.010000
17283 ha 16351 TPSG HA4 17283 0.1262 1.008000
17284 ca 16351 TPSG CA3 17284 -0.1548 12.010000
17285 ha 16351 TPSG HA3 17285 0.1282 1.008000
17286 OA 16351 TPSG O1 17286 -0.675000 15.99940
17287 HG 16351 TPSG H6 17287 0.400000 2.01600
17288 ha 16352 TPSG HA2 17288 0.1332 1.008000
17289 ca 16352 TPSG CA2 17289 -0.0753 12.010000
17290 ca 16352 TPSG CA1 17290 -0.361 12.010000
17291 si 16352 TPSG Si 17291 1.1 28.085000
17292 ca 16352 TPSG CA6 17292 -0.0753 12.010000
17293 ha 16352 TPSG HH6 17293 0.1332 1.008000
17294 ca 16352 TPSG CA5 17294 -0.1548 12.010000
17295 ha 16352 TPSG HA5 17295 0.1282 1.008000
17296 ca 16352 TPSG CA4 17296 -0.1028 12.010000
17297 ha 16352 TPSG HA4 17297 0.1262 1.008000
17298 ca 16352 TPSG CA3 17298 -0.1548 12.010000
17299 ha 16352 TPSG HA3 17299 0.1282 1.008000
17300 OA 16352 TPSG O1 17300 -0.675000 15.99940
17301 HG 16352 TPSG H6 17301 0.400000 2.01600
17302 ha 16353 TPSG HA2 17302 0.1332 1.008000
17303 ca 16353 TPSG CA2 17303 -0.0753 12.010000
17304 ca 16353 TPSG CA1 17304 -0.361 12.010000
17305 si 16353 TPSG Si 17305 1.1 28.085000
17306 ca 16353 TPSG CA6 17306 -0.0753 12.010000
17307 ha 16353 TPSG HH6 17307 0.1332 1.008000
17308 ca 16353 TPSG CA5 17308 -0.1548 12.010000
17309 ha 16353 TPSG HA5 17309 0.1282 1.008000
17310 ca 16353 TPSG CA4 17310 -0.1028 12.010000
17311 ha 16353 TPSG HA4 17311 0.1262 1.008000
17312 ca 16353 TPSG CA3 17312 -0.1548 12.010000
17313 ha 16353 TPSG HA3 17313 0.1282 1.008000
17314 OA 16353 TPSG O1 17314 -0.675000 15.99940
17315 HG 16353 TPSG H6 17315 0.400000 2.01600
17316 ha 16354 TPSG HA2 17316 0.1332 1.008000
17317 ca 16354 TPSG CA2 17317 -0.0753 12.010000
17318 ca 16354 TPSG CA1 17318 -0.361 12.010000
17319 si 16354 TPSG Si 17319 1.1 28.085000
17320 ca 16354 TPSG CA6 17320 -0.0753 12.010000
17321 ha 16354 TPSG HH6 17321 0.1332 1.008000
17322 ca 16354 TPSG CA5 17322 -0.1548 12.010000
17323 ha 16354 TPSG HA5 17323 0.1282 1.008000
17324 ca 16354 TPSG CA4 17324 -0.1028 12.010000
17325 ha 16354 TPSG HA4 17325 0.1262 1.008000
17326 ca 16354 TPSG CA3 17326 -0.1548 12.010000
17327 ha 16354 TPSG HA3 17327 0.1282 1.008000
17328 OA 16354 TPSG O1 17328 -0.675000 15.99940
17329 HG 16354 TPSG H6 17329 0.400000 2.01600
17330 ha 16355 TPSG HA2 17330 0.1332 1.008000
17331 ca 16355 TPSG CA2 17331 -0.0753 12.010000
17332 ca 16355 TPSG CA1 17332 -0.361 12.010000
17333 si 16355 TPSG Si 17333 1.1 28.085000
17334 ca 16355 TPSG CA6 17334 -0.0753 12.010000
17335 ha 16355 TPSG HH6 17335 0.1332 1.008000
17336 ca 16355 TPSG CA5 17336 -0.1548 12.010000
17337 ha 16355 TPSG HA5 17337 0.1282 1.008000
17338 ca 16355 TPSG CA4 17338 -0.1028 12.010000
17339 ha 16355 TPSG HA4 17339 0.1262 1.008000
17340 ca 16355 TPSG CA3 17340 -0.1548 12.010000
17341 ha 16355 TPSG HA3 17341 0.1282 1.008000
17342 OA 16355 TPSG O1 17342 -0.675000 15.99940
17343 HG 16355 TPSG H6 17343 0.400000 2.01600
17344 ha 16356 TPSG HA2 17344 0.1332 1.008000
17345 ca 16356 TPSG CA2 17345 -0.0753 12.010000
17346 ca 16356 TPSG CA1 17346 -0.361 12.010000
17347 si 16356 TPSG Si 17347 1.1 28.085000
17348 ca 16356 TPSG CA6 17348 -0.0753 12.010000
17349 ha 16356 TPSG HH6 17349 0.1332 1.008000
17350 ca 16356 TPSG CA5 17350 -0.1548 12.010000
17351 ha 16356 TPSG HA5 17351 0.1282 1.008000
17352 ca 16356 TPSG CA4 17352 -0.1028 12.010000
17353 ha 16356 TPSG HA4 17353 0.1262 1.008000
17354 ca 16356 TPSG CA3 17354 -0.1548 12.010000
17355 ha 16356 TPSG HA3 17355 0.1282 1.008000
17356 OA 16356 TPSG O1 17356 -0.675000 15.99940
17357 HG 16356 TPSG H6 17357 0.400000 2.01600
17358 ha 16357 TPSG HA2 17358 0.1332 1.008000
17359 ca 16357 TPSG CA2 17359 -0.0753 12.010000
17360 ca 16357 TPSG CA1 17360 -0.361 12.010000
17361 si 16357 TPSG Si 17361 1.1 28.085000
17362 ca 16357 TPSG CA6 17362 -0.0753 12.010000
17363 ha 16357 TPSG HH6 17363 0.1332 1.008000
17364 ca 16357 TPSG CA5 17364 -0.1548 12.010000
17365 ha 16357 TPSG HA5 17365 0.1282 1.008000
17366 ca 16357 TPSG CA4 17366 -0.1028 12.010000
17367 ha 16357 TPSG HA4 17367 0.1262 1.008000
17368 ca 16357 TPSG CA3 17368 -0.1548 12.010000
17369 ha 16357 TPSG HA3 17369 0.1282 1.008000
17370 OA 16357 TPSG O1 17370 -0.675000 15.99940
17371 HG 16357 TPSG H6 17371 0.400000 2.01600
17372 ha 16358 TPSG HA2 17372 0.1332 1.008000
17373 ca 16358 TPSG CA2 17373 -0.0753 12.010000
17374 ca 16358 TPSG CA1 17374 -0.361 12.010000
17375 si 16358 TPSG Si 17375 1.1 28.085000
17376 ca 16358 TPSG CA6 17376 -0.0753 12.010000
17377 ha 16358 TPSG HH6 17377 0.1332 1.008000
17378 ca 16358 TPSG CA5 17378 -0.1548 12.010000
17379 ha 16358 TPSG HA5 17379 0.1282 1.008000
17380 ca 16358 TPSG CA4 17380 -0.1028 12.010000
17381 ha 16358 TPSG HA4 17381 0.1262 1.008000
17382 ca 16358 TPSG CA3 17382 -0.1548 12.010000
17383 ha 16358 TPSG HA3 17383 0.1282 1.008000
17384 OA 16358 TPSG O1 17384 -0.675000 15.99940
17385 HG 16358 TPSG H6 17385 0.400000 2.01600
17386 ha 16359 TPSG HA2 17386 0.1332 1.008000
17387 ca 16359 TPSG CA2 17387 -0.0753 12.010000
17388 ca 16359 TPSG CA1 17388 -0.361 12.010000
17389 si 16359 TPSG Si 17389 1.1 28.085000
17390 ca 16359 TPSG CA6 17390 -0.0753 12.010000
17391 ha 16359 TPSG HH6 17391 0.1332 1.008000
17392 ca 16359 TPSG CA5 17392 -0.1548 12.010000
17393 ha 16359 TPSG HA5 17393 0.1282 1.008000
17394 ca 16359 TPSG CA4 17394 -0.1028 12.010000
17395 ha 16359 TPSG HA4 17395 0.1262 1.008000
17396 ca 16359 TPSG CA3 17396 -0.1548 12.010000
17397 ha 16359 TPSG HA3 17397 0.1282 1.008000
17398 OA 16359 TPSG O1 17398 -0.675000 15.99940
17399 HG 16359 TPSG H6 17399 0.400000 2.01600
17400 ha 16360 TPSG HA2 17400 0.1332 1.008000
17401 ca 16360 TPSG CA2 17401 -0.0753 12.010000
17402 ca 16360 TPSG CA1 17402 -0.361 12.010000
17403 si 16360 TPSG Si 17403 1.1 28.085000
17404 ca 16360 TPSG CA6 17404 -0.0753 12.010000
17405 ha 16360 TPSG HH6 17405 0.1332 1.008000
17406 ca 16360 TPSG CA5 17406 -0.1548 12.010000
17407 ha 16360 TPSG HA5 17407 0.1282 1.008000
17408 ca 16360 TPSG CA4 17408 -0.1028 12.010000
17409 ha 16360 TPSG HA4 17409 0.1262 1.008000
17410 ca 16360 TPSG CA3 17410 -0.1548 12.010000
17411 ha 16360 TPSG HA3 17411 0.1282 1.008000
17412 OA 16360 TPSG O1 17412 -0.675000 15.99940
17413 HG 16360 TPSG H6 17413 0.400000 2.01600
17414 ha 16361 TPSG HA2 17414 0.1332 1.008000
17415 ca 16361 TPSG CA2 17415 -0.0753 12.010000
17416 ca 16361 TPSG CA1 17416 -0.361 12.010000
17417 si 16361 TPSG Si 17417 1.1 28.085000
17418 ca 16361 TPSG CA6 17418 -0.0753 12.010000
17419 ha 16361 TPSG HH6 17419 0.1332 1.008000
17420 ca 16361 TPSG CA5 17420 -0.1548 12.010000
17421 ha 16361 TPSG HA5 17421 0.1282 1.008000
17422 ca 16361 TPSG CA4 17422 -0.1028 12.010000
17423 ha 16361 TPSG HA4 17423 0.1262 1.008000
17424 ca 16361 TPSG CA3 17424 -0.1548 12.010000
17425 ha 16361 TPSG HA3 17425 0.1282 1.008000
17426 OA 16361 TPSG O1 17426 -0.675000 15.99940
17427 HG 16361 TPSG H6 17427 0.400000 2.01600
17428 ha 16362 TPSG HA2 17428 0.1332 1.008000
17429 ca 16362 TPSG CA2 17429 -0.0753 12.010000
17430 ca 16362 TPSG CA1 17430 -0.361 12.010000
17431 si 16362 TPSG Si 17431 1.1 28.085000
17432 ca 16362 TPSG CA6 17432 -0.0753 12.010000
17433 ha 16362 TPSG HH6 17433 0.1332 1.008000
17434 ca 16362 TPSG CA5 17434 -0.1548 12.010000
17435 ha 16362 TPSG HA5 17435 0.1282 1.008000
17436 ca 16362 TPSG CA4 17436 -0.1028 12.010000
17437 ha 16362 TPSG HA4 17437 0.1262 1.008000
17438 ca 16362 TPSG CA3 17438 -0.1548 12.010000
17439 ha 16362 TPSG HA3 17439 0.1282 1.008000
17440 OA 16362 TPSG O1 17440 -0.675000 15.99940
17441 HG 16362 TPSG H6 17441 0.400000 2.01600
17442 ha 16363 TPSG HA2 17442 0.1332 1.008000
17443 ca 16363 TPSG CA2 17443 -0.0753 12.010000
17444 ca 16363 TPSG CA1 17444 -0.361 12.010000
17445 si 16363 TPSG Si 17445 1.1 28.085000
17446 ca 16363 TPSG CA6 17446 -0.0753 12.010000
17447 ha 16363 TPSG HH6 17447 0.1332 1.008000
17448 ca 16363 TPSG CA5 17448 -0.1548 12.010000
17449 ha 16363 TPSG HA5 17449 0.1282 1.008000
17450 ca 16363 TPSG CA4 17450 -0.1028 12.010000
17451 ha 16363 TPSG HA4 17451 0.1262 1.008000
17452 ca 16363 TPSG CA3 17452 -0.1548 12.010000
17453 ha 16363 TPSG HA3 17453 0.1282 1.008000
17454 OA 16363 TPSG O1 17454 -0.675000 15.99940
17455 HG 16363 TPSG H6 17455 0.400000 2.01600
17456 ha 16364 TPSG HA2 17456 0.1332 1.008000
17457 ca 16364 TPSG CA2 17457 -0.0753 12.010000
17458 ca 16364 TPSG CA1 17458 -0.361 12.010000
17459 si 16364 TPSG Si 17459 1.1 28.085000
17460 ca 16364 TPSG CA6 17460 -0.0753 12.010000
17461 ha 16364 TPSG HH6 17461 0.1332 1.008000
17462 ca 16364 TPSG CA5 17462 -0.1548 12.010000
17463 ha 16364 TPSG HA5 17463 0.1282 1.008000
17464 ca 16364 TPSG CA4 17464 -0.1028 12.010000
17465 ha 16364 TPSG HA4 17465 0.1262 1.008000
17466 ca 16364 TPSG CA3 17466 -0.1548 12.010000
17467 ha 16364 TPSG HA3 17467 0.1282 1.008000
17468 OA 16364 TPSG O1 17468 -0.675000 15.99940
17469 HG 16364 TPSG H6 17469 0.400000 2.01600
17470 ha 16365 TPSG HA2 17470 0.1332 1.008000
17471 ca 16365 TPSG CA2 17471 -0.0753 12.010000
17472 ca 16365 TPSG CA1 17472 -0.361 12.010000
17473 si 16365 TPSG Si 17473 1.1 28.085000
17474 ca 16365 TPSG CA6 17474 -0.0753 12.010000
17475 ha 16365 TPSG HH6 17475 0.1332 1.008000
17476 ca 16365 TPSG CA5 17476 -0.1548 12.010000
17477 ha 16365 TPSG HA5 17477 0.1282 1.008000
17478 ca 16365 TPSG CA4 17478 -0.1028 12.010000
17479 ha 16365 TPSG HA4 17479 0.1262 1.008000
17480 ca 16365 TPSG CA3 17480 -0.1548 12.010000
17481 ha 16365 TPSG HA3 17481 0.1282 1.008000
17482 OA 16365 TPSG O1 17482 -0.675000 15.99940
17483 HG 16365 TPSG H6 17483 0.400000 2.01600
17484 ha 16366 TPSG HA2 17484 0.1332 1.008000
17485 ca 16366 TPSG CA2 17485 -0.0753 12.010000
17486 ca 16366 TPSG CA1 17486 -0.361 12.010000
17487 si 16366 TPSG Si 17487 1.1 28.085000
17488 ca 16366 TPSG CA6 17488 -0.0753 12.010000
17489 ha 16366 TPSG HH6 17489 0.1332 1.008000
17490 ca 16366 TPSG CA5 17490 -0.1548 12.010000
17491 ha 16366 TPSG HA5 17491 0.1282 1.008000
17492 ca 16366 TPSG CA4 17492 -0.1028 12.010000
17493 ha 16366 TPSG HA4 17493 0.1262 1.008000
17494 ca 16366 TPSG CA3 17494 -0.1548 12.010000
17495 ha 16366 TPSG HA3 17495 0.1282 1.008000
17496 OA 16366 TPSG O1 17496 -0.675000 15.99940
17497 HG 16366 TPSG H6 17497 0.400000 2.01600
17498 ha 16367 TPSG HA2 17498 0.1332 1.008000
17499 ca 16367 TPSG CA2 17499 -0.0753 12.010000
17500 ca 16367 TPSG CA1 17500 -0.361 12.010000
17501 si 16367 TPSG Si 17501 1.1 28.085000
17502 ca 16367 TPSG CA6 17502 -0.0753 12.010000
17503 ha 16367 TPSG HH6 17503 0.1332 1.008000
17504 ca 16367 TPSG CA5 17504 -0.1548 12.010000
17505 ha 16367 TPSG HA5 17505 0.1282 1.008000
17506 ca 16367 TPSG CA4 17506 -0.1028 12.010000
17507 ha 16367 TPSG HA4 17507 0.1262 1.008000
17508 ca 16367 TPSG CA3 17508 -0.1548 12.010000
17509 ha 16367 TPSG HA3 17509 0.1282 1.008000
17510 OA 16367 TPSG O1 17510 -0.675000 15.99940
17511 HG 16367 TPSG H6 17511 0.400000 2.01600
17512 ha 16368 TPSG HA2 17512 0.1332 1.008000
17513 ca 16368 TPSG CA2 17513 -0.0753 12.010000
17514 ca 16368 TPSG CA1 17514 -0.361 12.010000
17515 si 16368 TPSG Si 17515 1.1 28.085000
17516 ca 16368 TPSG CA6 17516 -0.0753 12.010000
17517 ha 16368 TPSG HH6 17517 0.1332 1.008000
17518 ca 16368 TPSG CA5 17518 -0.1548 12.010000
17519 ha 16368 TPSG HA5 17519 0.1282 1.008000
17520 ca 16368 TPSG CA4 17520 -0.1028 12.010000
17521 ha 16368 TPSG HA4 17521 0.1262 1.008000
17522 ca 16368 TPSG CA3 17522 -0.1548 12.010000
17523 ha 16368 TPSG HA3 17523 0.1282 1.008000
17524 OA 16368 TPSG O1 17524 -0.675000 15.99940
17525 HG 16368 TPSG H6 17525 0.400000 2.01600
17526 ha 16369 TPSG HA2 17526 0.1332 1.008000
17527 ca 16369 TPSG CA2 17527 -0.0753 12.010000
17528 ca 16369 TPSG CA1 17528 -0.361 12.010000
17529 si 16369 TPSG Si 17529 1.1 28.085000
17530 ca 16369 TPSG CA6 17530 -0.0753 12.010000
17531 ha 16369 TPSG HH6 17531 0.1332 1.008000
17532 ca 16369 TPSG CA5 17532 -0.1548 12.010000
17533 ha 16369 TPSG HA5 17533 0.1282 1.008000
17534 ca 16369 TPSG CA4 17534 -0.1028 12.010000
17535 ha 16369 TPSG HA4 17535 0.1262 1.008000
17536 ca 16369 TPSG CA3 17536 -0.1548 12.010000
17537 ha 16369 TPSG HA3 17537 0.1282 1.008000
17538 OA 16369 TPSG O1 17538 -0.675000 15.99940
17539 HG 16369 TPSG H6 17539 0.400000 2.01600
17540 ha 16370 TPSG HA2 17540 0.1332 1.008000
17541 ca 16370 TPSG CA2 17541 -0.0753 12.010000
17542 ca 16370 TPSG CA1 17542 -0.361 12.010000
17543 si 16370 TPSG Si 17543 1.1 28.085000
17544 ca 16370 TPSG CA6 17544 -0.0753 12.010000
17545 ha 16370 TPSG HH6 17545 0.1332 1.008000
17546 ca 16370 TPSG CA5 17546 -0.1548 12.010000
17547 ha 16370 TPSG HA5 17547 0.1282 1.008000
17548 ca 16370 TPSG CA4 17548 -0.1028 12.010000
17549 ha 16370 TPSG HA4 17549 0.1262 1.008000
17550 ca 16370 TPSG CA3 17550 -0.1548 12.010000
17551 ha 16370 TPSG HA3 17551 0.1282 1.008000
17552 OA 16370 TPSG O1 17552 -0.675000 15.99940
17553 HG 16370 TPSG H6 17553 0.400000 2.01600
17554 ha 16371 TPSG HA2 17554 0.1332 1.008000
17555 ca 16371 TPSG CA2 17555 -0.0753 12.010000
17556 ca 16371 TPSG CA1 17556 -0.361 12.010000
17557 si 16371 TPSG Si 17557 1.1 28.085000
17558 ca 16371 TPSG CA6 17558 -0.0753 12.010000
17559 ha 16371 TPSG HH6 17559 0.1332 1.008000
17560 ca 16371 TPSG CA5 17560 -0.1548 12.010000
17561 ha 16371 TPSG HA5 17561 0.1282 1.008000
17562 ca 16371 TPSG CA4 17562 -0.1028 12.010000
17563 ha 16371 TPSG HA4 17563 0.1262 1.008000
17564 ca 16371 TPSG CA3 17564 -0.1548 12.010000
17565 ha 16371 TPSG HA3 17565 0.1282 1.008000
17566 OA 16371 TPSG O1 17566 -0.675000 15.99940
17567 HG 16371 TPSG H6 17567 0.400000 2.01600
17568 ha 16372 TPSG HA2 17568 0.1332 1.008000
17569 ca 16372 TPSG CA2 17569 -0.0753 12.010000
17570 ca 16372 TPSG CA1 17570 -0.361 12.010000
17571 si 16372 TPSG Si 17571 1.1 28.085000
17572 ca 16372 TPSG CA6 17572 -0.0753 12.010000
17573 ha 16372 TPSG HH6 17573 0.1332 1.008000
17574 ca 16372 TPSG CA5 17574 -0.1548 12.010000
17575 ha 16372 TPSG HA5 17575 0.1282 1.008000
17576 ca 16372 TPSG CA4 17576 -0.1028 12.010000
17577 ha 16372 TPSG HA4 17577 0.1262 1.008000
17578 ca 16372 TPSG CA3 17578 -0.1548 12.010000
17579 ha 16372 TPSG HA3 17579 0.1282 1.008000
17580 OA 16372 TPSG O1 17580 -0.675000 15.99940
17581 HG 16372 TPSG H6 17581 0.400000 2.01600
17582 ha 16373 TPSG HA2 17582 0.1332 1.008000
17583 ca 16373 TPSG CA2 17583 -0.0753 12.010000
17584 ca 16373 TPSG CA1 17584 -0.361 12.010000
17585 si 16373 TPSG Si 17585 1.1 28.085000
17586 ca 16373 TPSG CA6 17586 -0.0753 12.010000
17587 ha 16373 TPSG HH6 17587 0.1332 1.008000
17588 ca 16373 TPSG CA5 17588 -0.1548 12.010000
17589 ha 16373 TPSG HA5 17589 0.1282 1.008000
17590 ca 16373 TPSG CA4 17590 -0.1028 12.010000
17591 ha 16373 TPSG HA4 17591 0.1262 1.008000
17592 ca 16373 TPSG CA3 17592 -0.1548 12.010000
17593 ha 16373 TPSG HA3 17593 0.1282 1.008000
17594 OA 16373 TPSG O1 17594 -0.675000 15.99940
17595 HG 16373 TPSG H6 17595 0.400000 2.01600
17596 ha 16374 TPSG HA2 17596 0.1332 1.008000
17597 ca 16374 TPSG CA2 17597 -0.0753 12.010000
17598 ca 16374 TPSG CA1 17598 -0.361 12.010000
17599 si 16374 TPSG Si 17599 1.1 28.085000
17600 ca 16374 TPSG CA6 17600 -0.0753 12.010000
17601 ha 16374 TPSG HH6 17601 0.1332 1.008000
17602 ca 16374 TPSG CA5 17602 -0.1548 12.010000
17603 ha 16374 TPSG HA5 17603 0.1282 1.008000
17604 ca 16374 TPSG CA4 17604 -0.1028 12.010000
17605 ha 16374 TPSG HA4 17605 0.1262 1.008000
17606 ca 16374 TPSG CA3 17606 -0.1548 12.010000
17607 ha 16374 TPSG HA3 17607 0.1282 1.008000
17608 OA 16374 TPSG O1 17608 -0.675000 15.99940
17609 HG 16374 TPSG H6 17609 0.400000 2.01600
17610 ha 16375 TPSG HA2 17610 0.1332 1.008000
17611 ca 16375 TPSG CA2 17611 -0.0753 12.010000
17612 ca 16375 TPSG CA1 17612 -0.361 12.010000
17613 si 16375 TPSG Si 17613 1.1 28.085000
17614 ca 16375 TPSG CA6 17614 -0.0753 12.010000
17615 ha 16375 TPSG HH6 17615 0.1332 1.008000
17616 ca 16375 TPSG CA5 17616 -0.1548 12.010000
17617 ha 16375 TPSG HA5 17617 0.1282 1.008000
17618 ca 16375 TPSG CA4 17618 -0.1028 12.010000
17619 ha 16375 TPSG HA4 17619 0.1262 1.008000
17620 ca 16375 TPSG CA3 17620 -0.1548 12.010000
17621 ha 16375 TPSG HA3 17621 0.1282 1.008000
17622 OA 16375 TPSG O1 17622 -0.675000 15.99940
17623 HG 16375 TPSG H6 17623 0.400000 2.01600
17624 ha 16376 TPSG HA2 17624 0.1332 1.008000
17625 ca 16376 TPSG CA2 17625 -0.0753 12.010000
17626 ca 16376 TPSG CA1 17626 -0.361 12.010000
17627 si 16376 TPSG Si 17627 1.1 28.085000
17628 ca 16376 TPSG CA6 17628 -0.0753 12.010000
17629 ha 16376 TPSG HH6 17629 0.1332 1.008000
17630 ca 16376 TPSG CA5 17630 -0.1548 12.010000
17631 ha 16376 TPSG HA5 17631 0.1282 1.008000
17632 ca 16376 TPSG CA4 17632 -0.1028 12.010000
17633 ha 16376 TPSG HA4 17633 0.1262 1.008000
17634 ca 16376 TPSG CA3 17634 -0.1548 12.010000
17635 ha 16376 TPSG HA3 17635 0.1282 1.008000
17636 OA 16376 TPSG O1 17636 -0.675000 15.99940
17637 HG 16376 TPSG H6 17637 0.400000 2.01600
17638 ha 16377 TPSG HA2 17638 0.1332 1.008000
17639 ca 16377 TPSG CA2 17639 -0.0753 12.010000
17640 ca 16377 TPSG CA1 17640 -0.361 12.010000
17641 si 16377 TPSG Si 17641 1.1 28.085000
17642 ca 16377 TPSG CA6 17642 -0.0753 12.010000
17643 ha 16377 TPSG HH6 17643 0.1332 1.008000
17644 ca 16377 TPSG CA5 17644 -0.1548 12.010000
17645 ha 16377 TPSG HA5 17645 0.1282 1.008000
17646 ca 16377 TPSG CA4 17646 -0.1028 12.010000
17647 ha 16377 TPSG HA4 17647 0.1262 1.008000
17648 ca 16377 TPSG CA3 17648 -0.1548 12.010000
17649 ha 16377 TPSG HA3 17649 0.1282 1.008000
17650 OA 16377 TPSG O1 17650 -0.675000 15.99940
17651 HG 16377 TPSG H6 17651 0.400000 2.01600
17652 ha 16378 TPSG HA2 17652 0.1332 1.008000
17653 ca 16378 TPSG CA2 17653 -0.0753 12.010000
17654 ca 16378 TPSG CA1 17654 -0.361 12.010000
17655 si 16378 TPSG Si 17655 1.1 28.085000
17656 ca 16378 TPSG CA6 17656 -0.0753 12.010000
17657 ha 16378 TPSG HH6 17657 0.1332 1.008000
17658 ca 16378 TPSG CA5 17658 -0.1548 12.010000
17659 ha 16378 TPSG HA5 17659 0.1282 1.008000
17660 ca 16378 TPSG CA4 17660 -0.1028 12.010000
17661 ha 16378 TPSG HA4 17661 0.1262 1.008000
17662 ca 16378 TPSG CA3 17662 -0.1548 12.010000
17663 ha 16378 TPSG HA3 17663 0.1282 1.008000
17664 OA 16378 TPSG O1 17664 -0.675000 15.99940
17665 HG 16378 TPSG H6 17665 0.400000 2.01600
17666 ha 16379 TPSG HA2 17666 0.1332 1.008000
17667 ca 16379 TPSG CA2 17667 -0.0753 12.010000
17668 ca 16379 TPSG CA1 17668 -0.361 12.010000
17669 si 16379 TPSG Si 17669 1.1 28.085000
17670 ca 16379 TPSG CA6 17670 -0.0753 12.010000
17671 ha 16379 TPSG HH6 17671 0.1332 1.008000
17672 ca 16379 TPSG CA5 17672 -0.1548 12.010000
17673 ha 16379 TPSG HA5 17673 0.1282 1.008000
17674 ca 16379 TPSG CA4 17674 -0.1028 12.010000
17675 ha 16379 TPSG HA4 17675 0.1262 1.008000
17676 ca 16379 TPSG CA3 17676 -0.1548 12.010000
17677 ha 16379 TPSG HA3 17677 0.1282 1.008000
17678 OA 16379 TPSG O1 17678 -0.675000 15.99940
17679 HG 16379 TPSG H6 17679 0.400000 2.01600
17680 ha 16380 TPSG HA2 17680 0.1332 1.008000
17681 ca 16380 TPSG CA2 17681 -0.0753 12.010000
17682 ca 16380 TPSG CA1 17682 -0.361 12.010000
17683 si 16380 TPSG Si 17683 1.1 28.085000
17684 ca 16380 TPSG CA6 17684 -0.0753 12.010000
17685 ha 16380 TPSG HH6 17685 0.1332 1.008000
17686 ca 16380 TPSG CA5 17686 -0.1548 12.010000
17687 ha 16380 TPSG HA5 17687 0.1282 1.008000
17688 ca 16380 TPSG CA4 17688 -0.1028 12.010000
17689 ha 16380 TPSG HA4 17689 0.1262 1.008000
17690 ca 16380 TPSG CA3 17690 -0.1548 12.010000
17691 ha 16380 TPSG HA3 17691 0.1282 1.008000
17692 OA 16380 TPSG O1 17692 -0.675000 15.99940
17693 HG 16380 TPSG H6 17693 0.400000 2.01600
17694 ha 16381 TPSG HA2 17694 0.1332 1.008000
17695 ca 16381 TPSG CA2 17695 -0.0753 12.010000
17696 ca 16381 TPSG CA1 17696 -0.361 12.010000
17697 si 16381 TPSG Si 17697 1.1 28.085000
17698 ca 16381 TPSG CA6 17698 -0.0753 12.010000
17699 ha 16381 TPSG HH6 17699 0.1332 1.008000
17700 ca 16381 TPSG CA5 17700 -0.1548 12.010000
17701 ha 16381 TPSG HA5 17701 0.1282 1.008000
17702 ca 16381 TPSG CA4 17702 -0.1028 12.010000
17703 ha 16381 TPSG HA4 17703 0.1262 1.008000
17704 ca 16381 TPSG CA3 17704 -0.1548 12.010000
17705 ha 16381 TPSG HA3 17705 0.1282 1.008000
17706 OA 16381 TPSG O1 17706 -0.675000 15.99940
17707 HG 16381 TPSG H6 17707 0.400000 2.01600
17708 ha 16382 TPSG HA2 17708 0.1332 1.008000
17709 ca 16382 TPSG CA2 17709 -0.0753 12.010000
17710 ca 16382 TPSG CA1 17710 -0.361 12.010000
17711 si 16382 TPSG Si 17711 1.1 28.085000
17712 ca 16382 TPSG CA6 17712 -0.0753 12.010000
17713 ha 16382 TPSG HH6 17713 0.1332 1.008000
17714 ca 16382 TPSG CA5 17714 -0.1548 12.010000
17715 ha 16382 TPSG HA5 17715 0.1282 1.008000
17716 ca 16382 TPSG CA4 17716 -0.1028 12.010000
17717 ha 16382 TPSG HA4 17717 0.1262 1.008000
17718 ca 16382 TPSG CA3 17718 -0.1548 12.010000
17719 ha 16382 TPSG HA3 17719 0.1282 1.008000
17720 OA 16382 TPSG O1 17720 -0.675000 15.99940
17721 HG 16382 TPSG H6 17721 0.400000 2.01600
17722 ha 16383 TPSG HA2 17722 0.1332 1.008000
17723 ca 16383 TPSG CA2 17723 -0.0753 12.010000
17724 ca 16383 TPSG CA1 17724 -0.361 12.010000
17725 si 16383 TPSG Si 17725 1.1 28.085000
17726 ca 16383 TPSG CA6 17726 -0.0753 12.010000
17727 ha 16383 TPSG HH6 17727 0.1332 1.008000
17728 ca 16383 TPSG CA5 17728 -0.1548 12.010000
17729 ha 16383 TPSG HA5 17729 0.1282 1.008000
17730 ca 16383 TPSG CA4 17730 -0.1028 12.010000
17731 ha 16383 TPSG HA4 17731 0.1262 1.008000
17732 ca 16383 TPSG CA3 17732 -0.1548 12.010000
17733 ha 16383 TPSG HA3 17733 0.1282 1.008000
17734 OA 16383 TPSG O1 17734 -0.675000 15.99940
17735 HG 16383 TPSG H6 17735 0.400000 2.01600
17736 ha 16384 TPSG HA2 17736 0.1332 1.008000
17737 ca 16384 TPSG CA2 17737 -0.0753 12.010000
17738 ca 16384 TPSG CA1 17738 -0.361 12.010000
17739 si 16384 TPSG Si 17739 1.1 28.085000
17740 ca 16384 TPSG CA6 17740 -0.0753 12.010000
17741 ha 16384 TPSG HH6 17741 0.1332 1.008000
17742 ca 16384 TPSG CA5 17742 -0.1548 12.010000
17743 ha 16384 TPSG HA5 17743 0.1282 1.008000
17744 ca 16384 TPSG CA4 17744 -0.1028 12.010000
17745 ha 16384 TPSG HA4 17745 0.1262 1.008000
17746 ca 16384 TPSG CA3 17746 -0.1548 12.010000
17747 ha 16384 TPSG HA3 17747 0.1282 1.008000
17748 OA 16384 TPSG O1 17748 -0.675000 15.99940
17749 HG 16384 TPSG H6 17749 0.400000 2.01600
17750 ha 16385 TPSG HA2 17750 0.1332 1.008000
17751 ca 16385 TPSG CA2 17751 -0.0753 12.010000
17752 ca 16385 TPSG CA1 17752 -0.361 12.010000
17753 si 16385 TPSG Si 17753 1.1 28.085000
17754 ca 16385 TPSG CA6 17754 -0.0753 12.010000
17755 ha 16385 TPSG HH6 17755 0.1332 1.008000
17756 ca 16385 TPSG CA5 17756 -0.1548 12.010000
17757 ha 16385 TPSG HA5 17757 0.1282 1.008000
17758 ca 16385 TPSG CA4 17758 -0.1028 12.010000
17759 ha 16385 TPSG HA4 17759 0.1262 1.008000
17760 ca 16385 TPSG CA3 17760 -0.1548 12.010000
17761 ha 16385 TPSG HA3 17761 0.1282 1.008000
17762 OA 16385 TPSG O1 17762 -0.675000 15.99940
17763 HG 16385 TPSG H6 17763 0.400000 2.01600
17764 ha 16386 TPSG HA2 17764 0.1332 1.008000
17765 ca 16386 TPSG CA2 17765 -0.0753 12.010000
17766 ca 16386 TPSG CA1 17766 -0.361 12.010000
17767 si 16386 TPSG Si 17767 1.1 28.085000
17768 ca 16386 TPSG CA6 17768 -0.0753 12.010000
17769 ha 16386 TPSG HH6 17769 0.1332 1.008000
17770 ca 16386 TPSG CA5 17770 -0.1548 12.010000
17771 ha 16386 TPSG HA5 17771 0.1282 1.008000
17772 ca 16386 TPSG CA4 17772 -0.1028 12.010000
17773 ha 16386 TPSG HA4 17773 0.1262 1.008000
17774 ca 16386 TPSG CA3 17774 -0.1548 12.010000
17775 ha 16386 TPSG HA3 17775 0.1282 1.008000
17776 OA 16386 TPSG O1 17776 -0.675000 15.99940
17777 HG 16386 TPSG H6 17777 0.400000 2.01600
17778 ha 16387 TPSG HA2 17778 0.1332 1.008000
17779 ca 16387 TPSG CA2 17779 -0.0753 12.010000
17780 ca 16387 TPSG CA1 17780 -0.361 12.010000
17781 si 16387 TPSG Si 17781 1.1 28.085000
17782 ca 16387 TPSG CA6 17782 -0.0753 12.010000
17783 ha 16387 TPSG HH6 17783 0.1332 1.008000
17784 ca 16387 TPSG CA5 17784 -0.1548 12.010000
17785 ha 16387 TPSG HA5 17785 0.1282 1.008000
17786 ca 16387 TPSG CA4 17786 -0.1028 12.010000
17787 ha 16387 TPSG HA4 17787 0.1262 1.008000
17788 ca 16387 TPSG CA3 17788 -0.1548 12.010000
17789 ha 16387 TPSG HA3 17789 0.1282 1.008000
17790 OA 16387 TPSG O1 17790 -0.675000 15.99940
17791 HG 16387 TPSG H6 17791 0.400000 2.01600
17792 ha 16388 TPSG HA2 17792 0.1332 1.008000
17793 ca 16388 TPSG CA2 17793 -0.0753 12.010000
17794 ca 16388 TPSG CA1 17794 -0.361 12.010000
17795 si 16388 TPSG Si 17795 1.1 28.085000
17796 ca 16388 TPSG CA6 17796 -0.0753 12.010000
17797 ha 16388 TPSG HH6 17797 0.1332 1.008000
17798 ca 16388 TPSG CA5 17798 -0.1548 12.010000
17799 ha 16388 TPSG HA5 17799 0.1282 1.008000
17800 ca 16388 TPSG CA4 17800 -0.1028 12.010000
17801 ha 16388 TPSG HA4 17801 0.1262 1.008000
17802 ca 16388 TPSG CA3 17802 -0.1548 12.010000
17803 ha 16388 TPSG HA3 17803 0.1282 1.008000
17804 OA 16388 TPSG O1 17804 -0.675000 15.99940
17805 HG 16388 TPSG H6 17805 0.400000 2.01600
17806 ha 16389 TPSG HA2 17806 0.1332 1.008000
17807 ca 16389 TPSG CA2 17807 -0.0753 12.010000
17808 ca 16389 TPSG CA1 17808 -0.361 12.010000
17809 si 16389 TPSG Si 17809 1.1 28.085000
17810 ca 16389 TPSG CA6 17810 -0.0753 12.010000
17811 ha 16389 TPSG HH6 17811 0.1332 1.008000
17812 ca 16389 TPSG CA5 17812 -0.1548 12.010000
17813 ha 16389 TPSG HA5 17813 0.1282 1.008000
17814 ca 16389 TPSG CA4 17814 -0.1028 12.010000
17815 ha 16389 TPSG HA4 17815 0.1262 1.008000
17816 ca 16389 TPSG CA3 17816 -0.1548 12.010000
17817 ha 16389 TPSG HA3 17817 0.1282 1.008000
17818 OA 16389 TPSG O1 17818 -0.675000 15.99940
17819 HG 16389 TPSG H6 17819 0.400000 2.01600
17820 ha 16390 TPSG HA2 17820 0.1332 1.008000
17821 ca 16390 TPSG CA2 17821 -0.0753 12.010000
17822 ca 16390 TPSG CA1 17822 -0.361 12.010000
17823 si 16390 TPSG Si 17823 1.1 28.085000
17824 ca 16390 TPSG CA6 17824 -0.0753 12.010000
17825 ha 16390 TPSG HH6 17825 0.1332 1.008000
17826 ca 16390 TPSG CA5 17826 -0.1548 12.010000
17827 ha 16390 TPSG HA5 17827 0.1282 1.008000
17828 ca 16390 TPSG CA4 17828 -0.1028 12.010000
17829 ha 16390 TPSG HA4 17829 0.1262 1.008000
17830 ca 16390 TPSG CA3 17830 -0.1548 12.010000
17831 ha 16390 TPSG HA3 17831 0.1282 1.008000
17832 OA 16390 TPSG O1 17832 -0.675000 15.99940
17833 HG 16390 TPSG H6 17833 0.400000 2.01600
17834 ha 16391 TPSG HA2 17834 0.1332 1.008000
17835 ca 16391 TPSG CA2 17835 -0.0753 12.010000
17836 ca 16391 TPSG CA1 17836 -0.361 12.010000
17837 si 16391 TPSG Si 17837 1.1 28.085000
17838 ca 16391 TPSG CA6 17838 -0.0753 12.010000
17839 ha 16391 TPSG HH6 17839 0.1332 1.008000
17840 ca 16391 TPSG CA5 17840 -0.1548 12.010000
17841 ha 16391 TPSG HA5 17841 0.1282 1.008000
17842 ca 16391 TPSG CA4 17842 -0.1028 12.010000
17843 ha 16391 TPSG HA4 17843 0.1262 1.008000
17844 ca 16391 TPSG CA3 17844 -0.1548 12.010000
17845 ha 16391 TPSG HA3 17845 0.1282 1.008000
17846 OA 16391 TPSG O1 17846 -0.675000 15.99940
17847 HG 16391 TPSG H6 17847 0.400000 2.01600
17848 ha 16392 TPSG HA2 17848 0.1332 1.008000
17849 ca 16392 TPSG CA2 17849 -0.0753 12.010000
17850 ca 16392 TPSG CA1 17850 -0.361 12.010000
17851 si 16392 TPSG Si 17851 1.1 28.085000
17852 ca 16392 TPSG CA6 17852 -0.0753 12.010000
17853 ha 16392 TPSG HH6 17853 0.1332 1.008000
17854 ca 16392 TPSG CA5 17854 -0.1548 12.010000
17855 ha 16392 TPSG HA5 17855 0.1282 1.008000
17856 ca 16392 TPSG CA4 17856 -0.1028 12.010000
17857 ha 16392 TPSG HA4 17857 0.1262 1.008000
17858 ca 16392 TPSG CA3 17858 -0.1548 12.010000
17859 ha 16392 TPSG HA3 17859 0.1282 1.008000
17860 OA 16392 TPSG O1 17860 -0.675000 15.99940
17861 HG 16392 TPSG H6 17861 0.400000 2.01600
17862 ha 16393 TPSG HA2 17862 0.1332 1.008000
17863 ca 16393 TPSG CA2 17863 -0.0753 12.010000
17864 ca 16393 TPSG CA1 17864 -0.361 12.010000
17865 si 16393 TPSG Si 17865 1.1 28.085000
17866 ca 16393 TPSG CA6 17866 -0.0753 12.010000
17867 ha 16393 TPSG HH6 17867 0.1332 1.008000
17868 ca 16393 TPSG CA5 17868 -0.1548 12.010000
17869 ha 16393 TPSG HA5 17869 0.1282 1.008000
17870 ca 16393 TPSG CA4 17870 -0.1028 12.010000
17871 ha 16393 TPSG HA4 17871 0.1262 1.008000
17872 ca 16393 TPSG CA3 17872 -0.1548 12.010000
17873 ha 16393 TPSG HA3 17873 0.1282 1.008000
17874 OA 16393 TPSG O1 17874 -0.675000 15.99940
17875 HG 16393 TPSG H6 17875 0.400000 2.01600
17876 ha 16394 TPSG HA2 17876 0.1332 1.008000
17877 ca 16394 TPSG CA2 17877 -0.0753 12.010000
17878 ca 16394 TPSG CA1 17878 -0.361 12.010000
17879 si 16394 TPSG Si 17879 1.1 28.085000
17880 ca 16394 TPSG CA6 17880 -0.0753 12.010000
17881 ha 16394 TPSG HH6 17881 0.1332 1.008000
17882 ca 16394 TPSG CA5 17882 -0.1548 12.010000
17883 ha 16394 TPSG HA5 17883 0.1282 1.008000
17884 ca 16394 TPSG CA4 17884 -0.1028 12.010000
17885 ha 16394 TPSG HA4 17885 0.1262 1.008000
17886 ca 16394 TPSG CA3 17886 -0.1548 12.010000
17887 ha 16394 TPSG HA3 17887 0.1282 1.008000
17888 OA 16394 TPSG O1 17888 -0.675000 15.99940
17889 HG 16394 TPSG H6 17889 0.400000 2.01600
17890 ha 16395 TPSG HA2 17890 0.1332 1.008000
17891 ca 16395 TPSG CA2 17891 -0.0753 12.010000
17892 ca 16395 TPSG CA1 17892 -0.361 12.010000
17893 si 16395 TPSG Si 17893 1.1 28.085000
17894 ca 16395 TPSG CA6 17894 -0.0753 12.010000
17895 ha 16395 TPSG HH6 17895 0.1332 1.008000
17896 ca 16395 TPSG CA5 17896 -0.1548 12.010000
17897 ha 16395 TPSG HA5 17897 0.1282 1.008000
17898 ca 16395 TPSG CA4 17898 -0.1028 12.010000
17899 ha 16395 TPSG HA4 17899 0.1262 1.008000
17900 ca 16395 TPSG CA3 17900 -0.1548 12.010000
17901 ha 16395 TPSG HA3 17901 0.1282 1.008000
17902 OA 16395 TPSG O1 17902 -0.675000 15.99940
17903 HG 16395 TPSG H6 17903 0.400000 2.01600
17904 ha 16396 TPSG HA2 17904 0.1332 1.008000
17905 ca 16396 TPSG CA2 17905 -0.0753 12.010000
17906 ca 16396 TPSG CA1 17906 -0.361 12.010000
17907 si 16396 TPSG Si 17907 1.1 28.085000
17908 ca 16396 TPSG CA6 17908 -0.0753 12.010000
17909 ha 16396 TPSG HH6 17909 0.1332 1.008000
17910 ca 16396 TPSG CA5 17910 -0.1548 12.010000
17911 ha 16396 TPSG HA5 17911 0.1282 1.008000
17912 ca 16396 TPSG CA4 17912 -0.1028 12.010000
17913 ha 16396 TPSG HA4 17913 0.1262 1.008000
17914 ca 16396 TPSG CA3 17914 -0.1548 12.010000
17915 ha 16396 TPSG HA3 17915 0.1282 1.008000
17916 OA 16396 TPSG O1 17916 -0.675000 15.99940
17917 HG 16396 TPSG H6 17917 0.400000 2.01600
17918 ha 16397 TPSG HA2 17918 0.1332 1.008000
17919 ca 16397 TPSG CA2 17919 -0.0753 12.010000
17920 ca 16397 TPSG CA1 17920 -0.361 12.010000
17921 si 16397 TPSG Si 17921 1.1 28.085000
17922 ca 16397 TPSG CA6 17922 -0.0753 12.010000
17923 ha 16397 TPSG HH6 17923 0.1332 1.008000
17924 ca 16397 TPSG CA5 17924 -0.1548 12.010000
17925 ha 16397 TPSG HA5 17925 0.1282 1.008000
17926 ca 16397 TPSG CA4 17926 -0.1028 12.010000
17927 ha 16397 TPSG HA4 17927 0.1262 1.008000
17928 ca 16397 TPSG CA3 17928 -0.1548 12.010000
17929 ha 16397 TPSG HA3 17929 0.1282 1.008000
17930 OA 16397 TPSG O1 17930 -0.675000 15.99940
17931 HG 16397 TPSG H6 17931 0.400000 2.01600
17932 ha 16398 TPSG HA2 17932 0.1332 1.008000
17933 ca 16398 TPSG CA2 17933 -0.0753 12.010000
17934 ca 16398 TPSG CA1 17934 -0.361 12.010000
17935 si 16398 TPSG Si 17935 1.1 28.085000
17936 ca 16398 TPSG CA6 17936 -0.0753 12.010000
17937 ha 16398 TPSG HH6 17937 0.1332 1.008000
17938 ca 16398 TPSG CA5 17938 -0.1548 12.010000
17939 ha 16398 TPSG HA5 17939 0.1282 1.008000
17940 ca 16398 TPSG CA4 17940 -0.1028 12.010000
17941 ha 16398 TPSG HA4 17941 0.1262 1.008000
17942 ca 16398 TPSG CA3 17942 -0.1548 12.010000
17943 ha 16398 TPSG HA3 17943 0.1282 1.008000
17944 OA 16398 TPSG O1 17944 -0.675000 15.99940
17945 HG 16398 TPSG H6 17945 0.400000 2.01600
17946 ha 16399 TPSG HA2 17946 0.1332 1.008000
17947 ca 16399 TPSG CA2 17947 -0.0753 12.010000
17948 ca 16399 TPSG CA1 17948 -0.361 12.010000
17949 si 16399 TPSG Si 17949 1.1 28.085000
17950 ca 16399 TPSG CA6 17950 -0.0753 12.010000
17951 ha 16399 TPSG HH6 17951 0.1332 1.008000
17952 ca 16399 TPSG CA5 17952 -0.1548 12.010000
17953 ha 16399 TPSG HA5 17953 0.1282 1.008000
17954 ca 16399 TPSG CA4 17954 -0.1028 12.010000
17955 ha 16399 TPSG HA4 17955 0.1262 1.008000
17956 ca 16399 TPSG CA3 17956 -0.1548 12.010000
17957 ha 16399 TPSG HA3 17957 0.1282 1.008000
17958 OA 16399 TPSG O1 17958 -0.675000 15.99940
17959 HG 16399 TPSG H6 17959 0.400000 2.01600
17960 ha 16400 TPSG HA2 17960 0.1332 1.008000
17961 ca 16400 TPSG CA2 17961 -0.0753 12.010000
17962 ca 16400 TPSG CA1 17962 -0.361 12.010000
17963 si 16400 TPSG Si 17963 1.1 28.085000
17964 ca 16400 TPSG CA6 17964 -0.0753 12.010000
17965 ha 16400 TPSG HH6 17965 0.1332 1.008000
17966 ca 16400 TPSG CA5 17966 -0.1548 12.010000
17967 ha 16400 TPSG HA5 17967 0.1282 1.008000
17968 ca 16400 TPSG CA4 17968 -0.1028 12.010000
17969 ha 16400 TPSG HA4 17969 0.1262 1.008000
17970 ca 16400 TPSG CA3 17970 -0.1548 12.010000
17971 ha 16400 TPSG HA3 17971 0.1282 1.008000
17972 OA 16400 TPSG O1 17972 -0.675000 15.99940
17973 HG 16400 TPSG H6 17973 0.400000 2.01600
17974 ha 16401 TPSG HA2 17974 0.1332 1.008000
17975 ca 16401 TPSG CA2 17975 -0.0753 12.010000
17976 ca 16401 TPSG CA1 17976 -0.361 12.010000
17977 si 16401 TPSG Si 17977 1.1 28.085000
17978 ca 16401 TPSG CA6 17978 -0.0753 12.010000
17979 ha 16401 TPSG HH6 17979 0.1332 1.008000
17980 ca 16401 TPSG CA5 17980 -0.1548 12.010000
17981 ha 16401 TPSG HA5 17981 0.1282 1.008000
17982 ca 16401 TPSG CA4 17982 -0.1028 12.010000
17983 ha 16401 TPSG HA4 17983 0.1262 1.008000
17984 ca 16401 TPSG CA3 17984 -0.1548 12.010000
17985 ha 16401 TPSG HA3 17985 0.1282 1.008000
17986 OA 16401 TPSG O1 17986 -0.675000 15.99940
17987 HG 16401 TPSG H6 17987 0.400000 2.01600
17988 ha 16402 TPSG HA2 17988 0.1332 1.008000
17989 ca 16402 TPSG CA2 17989 -0.0753 12.010000
17990 ca 16402 TPSG CA1 17990 -0.361 12.010000
17991 si 16402 TPSG Si 17991 1.1 28.085000
17992 ca 16402 TPSG CA6 17992 -0.0753 12.010000
17993 ha 16402 TPSG HH6 17993 0.1332 1.008000
17994 ca 16402 TPSG CA5 17994 -0.1548 12.010000
17995 ha 16402 TPSG HA5 17995 0.1282 1.008000
17996 ca 16402 TPSG CA4 17996 -0.1028 12.010000
17997 ha 16402 TPSG HA4 17997 0.1262 1.008000
17998 ca 16402 TPSG CA3 17998 -0.1548 12.010000
17999 ha 16402 TPSG HA3 17999 0.1282 1.008000
18000 OA 16402 TPSG O1 18000 -0.675000 15.99940
18001 HG 16402 TPSG H6 18001 0.400000 2.01600
18002 ha 16403 TPSG HA2 18002 0.1332 1.008000
18003 ca 16403 TPSG CA2 18003 -0.0753 12.010000
18004 ca 16403 TPSG CA1 18004 -0.361 12.010000
18005 si 16403 TPSG Si 18005 1.1 28.085000
18006 ca 16403 TPSG CA6 18006 -0.0753 12.010000
18007 ha 16403 TPSG HH6 18007 0.1332 1.008000
18008 ca 16403 TPSG CA5 18008 -0.1548 12.010000
18009 ha 16403 TPSG HA5 18009 0.1282 1.008000
18010 ca 16403 TPSG CA4 18010 -0.1028 12.010000
18011 ha 16403 TPSG HA4 18011 0.1262 1.008000
18012 ca 16403 TPSG CA3 18012 -0.1548 12.010000
18013 ha 16403 TPSG HA3 18013 0.1282 1.008000
18014 OA 16403 TPSG O1 18014 -0.675000 15.99940
18015 HG 16403 TPSG H6 18015 0.400000 2.01600
18016 ha 16404 TPSG HA2 18016 0.1332 1.008000
18017 ca 16404 TPSG CA2 18017 -0.0753 12.010000
18018 ca 16404 TPSG CA1 18018 -0.361 12.010000
18019 si 16404 TPSG Si 18019 1.1 28.085000
18020 ca 16404 TPSG CA6 18020 -0.0753 12.010000
18021 ha 16404 TPSG HH6 18021 0.1332 1.008000
18022 ca 16404 TPSG CA5 18022 -0.1548 12.010000
18023 ha 16404 TPSG HA5 18023 0.1282 1.008000
18024 ca 16404 TPSG CA4 18024 -0.1028 12.010000
18025 ha 16404 TPSG HA4 18025 0.1262 1.008000
18026 ca 16404 TPSG CA3 18026 -0.1548 12.010000
18027 ha 16404 TPSG HA3 18027 0.1282 1.008000
18028 OA 16404 TPSG O1 18028 -0.675000 15.99940
18029 HG 16404 TPSG H6 18029 0.400000 2.01600
18030 ha 16405 TPSG HA2 18030 0.1332 1.008000
18031 ca 16405 TPSG CA2 18031 -0.0753 12.010000
18032 ca 16405 TPSG CA1 18032 -0.361 12.010000
18033 si 16405 TPSG Si 18033 1.1 28.085000
18034 ca 16405 TPSG CA6 18034 -0.0753 12.010000
18035 ha 16405 TPSG HH6 18035 0.1332 1.008000
18036 ca 16405 TPSG CA5 18036 -0.1548 12.010000
18037 ha 16405 TPSG HA5 18037 0.1282 1.008000
18038 ca 16405 TPSG CA4 18038 -0.1028 12.010000
18039 ha 16405 TPSG HA4 18039 0.1262 1.008000
18040 ca 16405 TPSG CA3 18040 -0.1548 12.010000
18041 ha 16405 TPSG HA3 18041 0.1282 1.008000
18042 OA 16405 TPSG O1 18042 -0.675000 15.99940
18043 HG 16405 TPSG H6 18043 0.400000 2.01600
18044 ha 16406 TPSG HA2 18044 0.1332 1.008000
18045 ca 16406 TPSG CA2 18045 -0.0753 12.010000
18046 ca 16406 TPSG CA1 18046 -0.361 12.010000
18047 si 16406 TPSG Si 18047 1.1 28.085000
18048 ca 16406 TPSG CA6 18048 -0.0753 12.010000
18049 ha 16406 TPSG HH6 18049 0.1332 1.008000
18050 ca 16406 TPSG CA5 18050 -0.1548 12.010000
18051 ha 16406 TPSG HA5 18051 0.1282 1.008000
18052 ca 16406 TPSG CA4 18052 -0.1028 12.010000
18053 ha 16406 TPSG HA4 18053 0.1262 1.008000
18054 ca 16406 TPSG CA3 18054 -0.1548 12.010000
18055 ha 16406 TPSG HA3 18055 0.1282 1.008000
18056 OA 16406 TPSG O1 18056 -0.675000 15.99940
18057 HG 16406 TPSG H6 18057 0.400000 2.01600
18058 ha 16407 TPSG HA2 18058 0.1332 1.008000
18059 ca 16407 TPSG CA2 18059 -0.0753 12.010000
18060 ca 16407 TPSG CA1 18060 -0.361 12.010000
18061 si 16407 TPSG Si 18061 1.1 28.085000
18062 ca 16407 TPSG CA6 18062 -0.0753 12.010000
18063 ha 16407 TPSG HH6 18063 0.1332 1.008000
18064 ca 16407 TPSG CA5 18064 -0.1548 12.010000
18065 ha 16407 TPSG HA5 18065 0.1282 1.008000
18066 ca 16407 TPSG CA4 18066 -0.1028 12.010000
18067 ha 16407 TPSG HA4 18067 0.1262 1.008000
18068 ca 16407 TPSG CA3 18068 -0.1548 12.010000
18069 ha 16407 TPSG HA3 18069 0.1282 1.008000
18070 OA 16407 TPSG O1 18070 -0.675000 15.99940
18071 HG 16407 TPSG H6 18071 0.400000 2.01600
18072 ha 16408 TPSG HA2 18072 0.1332 1.008000
18073 ca 16408 TPSG CA2 18073 -0.0753 12.010000
18074 ca 16408 TPSG CA1 18074 -0.361 12.010000
18075 si 16408 TPSG Si 18075 1.1 28.085000
18076 ca 16408 TPSG CA6 18076 -0.0753 12.010000
18077 ha 16408 TPSG HH6 18077 0.1332 1.008000
18078 ca 16408 TPSG CA5 18078 -0.1548 12.010000
18079 ha 16408 TPSG HA5 18079 0.1282 1.008000
18080 ca 16408 TPSG CA4 18080 -0.1028 12.010000
18081 ha 16408 TPSG HA4 18081 0.1262 1.008000
18082 ca 16408 TPSG CA3 18082 -0.1548 12.010000
18083 ha 16408 TPSG HA3 18083 0.1282 1.008000
18084 OA 16408 TPSG O1 18084 -0.675000 15.99940
18085 HG 16408 TPSG H6 18085 0.400000 2.01600
18086 ha 16409 TPSG HA2 18086 0.1332 1.008000
18087 ca 16409 TPSG CA2 18087 -0.0753 12.010000
18088 ca 16409 TPSG CA1 18088 -0.361 12.010000
18089 si 16409 TPSG Si 18089 1.1 28.085000
18090 ca 16409 TPSG CA6 18090 -0.0753 12.010000
18091 ha 16409 TPSG HH6 18091 0.1332 1.008000
18092 ca 16409 TPSG CA5 18092 -0.1548 12.010000
18093 ha 16409 TPSG HA5 18093 0.1282 1.008000
18094 ca 16409 TPSG CA4 18094 -0.1028 12.010000
18095 ha 16409 TPSG HA4 18095 0.1262 1.008000
18096 ca 16409 TPSG CA3 18096 -0.1548 12.010000
18097 ha 16409 TPSG HA3 18097 0.1282 1.008000
18098 OA 16409 TPSG O1 18098 -0.675000 15.99940
18099 HG 16409 TPSG H6 18099 0.400000 2.01600
18100 ha 16410 TPSG HA2 18100 0.1332 1.008000
18101 ca 16410 TPSG CA2 18101 -0.0753 12.010000
18102 ca 16410 TPSG CA1 18102 -0.361 12.010000
18103 si 16410 TPSG Si 18103 1.1 28.085000
18104 ca 16410 TPSG CA6 18104 -0.0753 12.010000
18105 ha 16410 TPSG HH6 18105 0.1332 1.008000
18106 ca 16410 TPSG CA5 18106 -0.1548 12.010000
18107 ha 16410 TPSG HA5 18107 0.1282 1.008000
18108 ca 16410 TPSG CA4 18108 -0.1028 12.010000
18109 ha 16410 TPSG HA4 18109 0.1262 1.008000
18110 ca 16410 TPSG CA3 18110 -0.1548 12.010000
18111 ha 16410 TPSG HA3 18111 0.1282 1.008000
18112 OA 16410 TPSG O1 18112 -0.675000 15.99940
18113 HG 16410 TPSG H6 18113 0.400000 2.01600
18114 ha 16411 TPSG HA2 18114 0.1332 1.008000
18115 ca 16411 TPSG CA2 18115 -0.0753 12.010000
18116 ca 16411 TPSG CA1 18116 -0.361 12.010000
18117 si 16411 TPSG Si 18117 1.1 28.085000
18118 ca 16411 TPSG CA6 18118 -0.0753 12.010000
18119 ha 16411 TPSG HH6 18119 0.1332 1.008000
18120 ca 16411 TPSG CA5 18120 -0.1548 12.010000
18121 ha 16411 TPSG HA5 18121 0.1282 1.008000
18122 ca 16411 TPSG CA4 18122 -0.1028 12.010000
18123 ha 16411 TPSG HA4 18123 0.1262 1.008000
18124 ca 16411 TPSG CA3 18124 -0.1548 12.010000
18125 ha 16411 TPSG HA3 18125 0.1282 1.008000
18126 OA 16411 TPSG O1 18126 -0.675000 15.99940
18127 HG 16411 TPSG H6 18127 0.400000 2.01600
18128 ha 16412 TPSG HA2 18128 0.1332 1.008000
18129 ca 16412 TPSG CA2 18129 -0.0753 12.010000
18130 ca 16412 TPSG CA1 18130 -0.361 12.010000
18131 si 16412 TPSG Si 18131 1.1 28.085000
18132 ca 16412 TPSG CA6 18132 -0.0753 12.010000
18133 ha 16412 TPSG HH6 18133 0.1332 1.008000
18134 ca 16412 TPSG CA5 18134 -0.1548 12.010000
18135 ha 16412 TPSG HA5 18135 0.1282 1.008000
18136 ca 16412 TPSG CA4 18136 -0.1028 12.010000
18137 ha 16412 TPSG HA4 18137 0.1262 1.008000
18138 ca 16412 TPSG CA3 18138 -0.1548 12.010000
18139 ha 16412 TPSG HA3 18139 0.1282 1.008000
18140 OA 16412 TPSG O1 18140 -0.675000 15.99940
18141 HG 16412 TPSG H6 18141 0.400000 2.01600
18142 ha 16413 TPSG HA2 18142 0.1332 1.008000
18143 ca 16413 TPSG CA2 18143 -0.0753 12.010000
18144 ca 16413 TPSG CA1 18144 -0.361 12.010000
18145 si 16413 TPSG Si 18145 1.1 28.085000
18146 ca 16413 TPSG CA6 18146 -0.0753 12.010000
18147 ha 16413 TPSG HH6 18147 0.1332 1.008000
18148 ca 16413 TPSG CA5 18148 -0.1548 12.010000
18149 ha 16413 TPSG HA5 18149 0.1282 1.008000
18150 ca 16413 TPSG CA4 18150 -0.1028 12.010000
18151 ha 16413 TPSG HA4 18151 0.1262 1.008000
18152 ca 16413 TPSG CA3 18152 -0.1548 12.010000
18153 ha 16413 TPSG HA3 18153 0.1282 1.008000
18154 OA 16413 TPSG O1 18154 -0.675000 15.99940
18155 HG 16413 TPSG H6 18155 0.400000 2.01600
18156 ha 16414 TPSG HA2 18156 0.1332 1.008000
18157 ca 16414 TPSG CA2 18157 -0.0753 12.010000
18158 ca 16414 TPSG CA1 18158 -0.361 12.010000
18159 si 16414 TPSG Si 18159 1.1 28.085000
18160 ca 16414 TPSG CA6 18160 -0.0753 12.010000
18161 ha 16414 TPSG HH6 18161 0.1332 1.008000
18162 ca 16414 TPSG CA5 18162 -0.1548 12.010000
18163 ha 16414 TPSG HA5 18163 0.1282 1.008000
18164 ca 16414 TPSG CA4 18164 -0.1028 12.010000
18165 ha 16414 TPSG HA4 18165 0.1262 1.008000
18166 ca 16414 TPSG CA3 18166 -0.1548 12.010000
18167 ha 16414 TPSG HA3 18167 0.1282 1.008000
18168 OA 16414 TPSG O1 18168 -0.675000 15.99940
18169 HG 16414 TPSG H6 18169 0.400000 2.01600
18170 ha 16415 TPSG HA2 18170 0.1332 1.008000
18171 ca 16415 TPSG CA2 18171 -0.0753 12.010000
18172 ca 16415 TPSG CA1 18172 -0.361 12.010000
18173 si 16415 TPSG Si 18173 1.1 28.085000
18174 ca 16415 TPSG CA6 18174 -0.0753 12.010000
18175 ha 16415 TPSG HH6 18175 0.1332 1.008000
18176 ca 16415 TPSG CA5 18176 -0.1548 12.010000
18177 ha 16415 TPSG HA5 18177 0.1282 1.008000
18178 ca 16415 TPSG CA4 18178 -0.1028 12.010000
18179 ha 16415 TPSG HA4 18179 0.1262 1.008000
18180 ca 16415 TPSG CA3 18180 -0.1548 12.010000
18181 ha 16415 TPSG HA3 18181 0.1282 1.008000
18182 OA 16415 TPSG O1 18182 -0.675000 15.99940
18183 HG 16415 TPSG H6 18183 0.400000 2.01600
18184 ha 16416 TPSG HA2 18184 0.1332 1.008000
18185 ca 16416 TPSG CA2 18185 -0.0753 12.010000
18186 ca 16416 TPSG CA1 18186 -0.361 12.010000
18187 si 16416 TPSG Si 18187 1.1 28.085000
18188 ca 16416 TPSG CA6 18188 -0.0753 12.010000
18189 ha 16416 TPSG HH6 18189 0.1332 1.008000
18190 ca 16416 TPSG CA5 18190 -0.1548 12.010000
18191 ha 16416 TPSG HA5 18191 0.1282 1.008000
18192 ca 16416 TPSG CA4 18192 -0.1028 12.010000
18193 ha 16416 TPSG HA4 18193 0.1262 1.008000
18194 ca 16416 TPSG CA3 18194 -0.1548 12.010000
18195 ha 16416 TPSG HA3 18195 0.1282 1.008000
18196 OA 16416 TPSG O1 18196 -0.675000 15.99940
18197 HG 16416 TPSG H6 18197 0.400000 2.01600
18198 ha 16417 TPSG HA2 18198 0.1332 1.008000
18199 ca 16417 TPSG CA2 18199 -0.0753 12.010000
18200 ca 16417 TPSG CA1 18200 -0.361 12.010000
18201 si 16417 TPSG Si 18201 1.1 28.085000
18202 ca 16417 TPSG CA6 18202 -0.0753 12.010000
18203 ha 16417 TPSG HH6 18203 0.1332 1.008000
18204 ca 16417 TPSG CA5 18204 -0.1548 12.010000
18205 ha 16417 TPSG HA5 18205 0.1282 1.008000
18206 ca 16417 TPSG CA4 18206 -0.1028 12.010000
18207 ha 16417 TPSG HA4 18207 0.1262 1.008000
18208 ca 16417 TPSG CA3 18208 -0.1548 12.010000
18209 ha 16417 TPSG HA3 18209 0.1282 1.008000
18210 OA 16417 TPSG O1 18210 -0.675000 15.99940
18211 HG 16417 TPSG H6 18211 0.400000 2.01600
18212 ha 16418 TPSG HA2 18212 0.1332 1.008000
18213 ca 16418 TPSG CA2 18213 -0.0753 12.010000
18214 ca 16418 TPSG CA1 18214 -0.361 12.010000
18215 si 16418 TPSG Si 18215 1.1 28.085000
18216 ca 16418 TPSG CA6 18216 -0.0753 12.010000
18217 ha 16418 TPSG HH6 18217 0.1332 1.008000
18218 ca 16418 TPSG CA5 18218 -0.1548 12.010000
18219 ha 16418 TPSG HA5 18219 0.1282 1.008000
18220 ca 16418 TPSG CA4 18220 -0.1028 12.010000
18221 ha 16418 TPSG HA4 18221 0.1262 1.008000
18222 ca 16418 TPSG CA3 18222 -0.1548 12.010000
18223 ha 16418 TPSG HA3 18223 0.1282 1.008000
18224 OA 16418 TPSG O1 18224 -0.675000 15.99940
18225 HG 16418 TPSG H6 18225 0.400000 2.01600
18226 ha 16419 TPSG HA2 18226 0.1332 1.008000
18227 ca 16419 TPSG CA2 18227 -0.0753 12.010000
18228 ca 16419 TPSG CA1 18228 -0.361 12.010000
18229 si 16419 TPSG Si 18229 1.1 28.085000
18230 ca 16419 TPSG CA6 18230 -0.0753 12.010000
18231 ha 16419 TPSG HH6 18231 0.1332 1.008000
18232 ca 16419 TPSG CA5 18232 -0.1548 12.010000
18233 ha 16419 TPSG HA5 18233 0.1282 1.008000
18234 ca 16419 TPSG CA4 18234 -0.1028 12.010000
18235 ha 16419 TPSG HA4 18235 0.1262 1.008000
18236 ca 16419 TPSG CA3 18236 -0.1548 12.010000
18237 ha 16419 TPSG HA3 18237 0.1282 1.008000
18238 OA 16419 TPSG O1 18238 -0.675000 15.99940
18239 HG 16419 TPSG H6 18239 0.400000 2.01600
18240 ha 16420 TPSG HA2 18240 0.1332 1.008000
18241 ca 16420 TPSG CA2 18241 -0.0753 12.010000
18242 ca 16420 TPSG CA1 18242 -0.361 12.010000
18243 si 16420 TPSG Si 18243 1.1 28.085000
18244 ca 16420 TPSG CA6 18244 -0.0753 12.010000
18245 ha 16420 TPSG HH6 18245 0.1332 1.008000
18246 ca 16420 TPSG CA5 18246 -0.1548 12.010000
18247 ha 16420 TPSG HA5 18247 0.1282 1.008000
18248 ca 16420 TPSG CA4 18248 -0.1028 12.010000
18249 ha 16420 TPSG HA4 18249 0.1262 1.008000
18250 ca 16420 TPSG CA3 18250 -0.1548 12.010000
18251 ha 16420 TPSG HA3 18251 0.1282 1.008000
18252 OA 16420 TPSG O1 18252 -0.675000 15.99940
18253 HG 16420 TPSG H6 18253 0.400000 2.01600
18254 ha 16421 TPSG HA2 18254 0.1332 1.008000
18255 ca 16421 TPSG CA2 18255 -0.0753 12.010000
18256 ca 16421 TPSG CA1 18256 -0.361 12.010000
18257 si 16421 TPSG Si 18257 1.1 28.085000
18258 ca 16421 TPSG CA6 18258 -0.0753 12.010000
18259 ha 16421 TPSG HH6 18259 0.1332 1.008000
18260 ca 16421 TPSG CA5 18260 -0.1548 12.010000
18261 ha 16421 TPSG HA5 18261 0.1282 1.008000
18262 ca 16421 TPSG CA4 18262 -0.1028 12.010000
18263 ha 16421 TPSG HA4 18263 0.1262 1.008000
18264 ca 16421 TPSG CA3 18264 -0.1548 12.010000
18265 ha 16421 TPSG HA3 18265 0.1282 1.008000
18266 OA 16421 TPSG O1 18266 -0.675000 15.99940
18267 HG 16421 TPSG H6 18267 0.400000 2.01600
18268 ha 16422 TPSG HA2 18268 0.1332 1.008000
18269 ca 16422 TPSG CA2 18269 -0.0753 12.010000
18270 ca 16422 TPSG CA1 18270 -0.361 12.010000
18271 si 16422 TPSG Si 18271 1.1 28.085000
18272 ca 16422 TPSG CA6 18272 -0.0753 12.010000
18273 ha 16422 TPSG HH6 18273 0.1332 1.008000
18274 ca 16422 TPSG CA5 18274 -0.1548 12.010000
18275 ha 16422 TPSG HA5 18275 0.1282 1.008000
18276 ca 16422 TPSG CA4 18276 -0.1028 12.010000
18277 ha 16422 TPSG HA4 18277 0.1262 1.008000
18278 ca 16422 TPSG CA3 18278 -0.1548 12.010000
18279 ha 16422 TPSG HA3 18279 0.1282 1.008000
18280 OA 16422 TPSG O1 18280 -0.675000 15.99940
18281 HG 16422 TPSG H6 18281 0.400000 2.01600
18282 ha 16423 TPSG HA2 18282 0.1332 1.008000
18283 ca 16423 TPSG CA2 18283 -0.0753 12.010000
18284 ca 16423 TPSG CA1 18284 -0.361 12.010000
18285 si 16423 TPSG Si 18285 1.1 28.085000
18286 ca 16423 TPSG CA6 18286 -0.0753 12.010000
18287 ha 16423 TPSG HH6 18287 0.1332 1.008000
18288 ca 16423 TPSG CA5 18288 -0.1548 12.010000
18289 ha 16423 TPSG HA5 18289 0.1282 1.008000
18290 ca 16423 TPSG CA4 18290 -0.1028 12.010000
18291 ha 16423 TPSG HA4 18291 0.1262 1.008000
18292 ca 16423 TPSG CA3 18292 -0.1548 12.010000
18293 ha 16423 TPSG HA3 18293 0.1282 1.008000
18294 OA 16423 TPSG O1 18294 -0.675000 15.99940
18295 HG 16423 TPSG H6 18295 0.400000 2.01600
18296 ha 16424 TPSG HA2 18296 0.1332 1.008000
18297 ca 16424 TPSG CA2 18297 -0.0753 12.010000
18298 ca 16424 TPSG CA1 18298 -0.361 12.010000
18299 si 16424 TPSG Si 18299 1.1 28.085000
18300 ca 16424 TPSG CA6 18300 -0.0753 12.010000
18301 ha 16424 TPSG HH6 18301 0.1332 1.008000
18302 ca 16424 TPSG CA5 18302 -0.1548 12.010000
18303 ha 16424 TPSG HA5 18303 0.1282 1.008000
18304 ca 16424 TPSG CA4 18304 -0.1028 12.010000
18305 ha 16424 TPSG HA4 18305 0.1262 1.008000
18306 ca 16424 TPSG CA3 18306 -0.1548 12.010000
18307 ha 16424 TPSG HA3 18307 0.1282 1.008000
18308 OA 16424 TPSG O1 18308 -0.675000 15.99940
18309 HG 16424 TPSG H6 18309 0.400000 2.01600
18310 ha 16425 TPS HA2 18310 0.1332 1.008000
18311 ca 16425 TPS CA2 18311 -0.0753 12.010000
18312 ca 16425 TPS CA1 18312 -0.361 12.010000
18313 si 16425 TPS Si 18313 1.1 28.085000
18314 ca 16425 TPS CA6 18314 -0.0753 12.010000
18315 ha 16425 TPS HH6 18315 0.1332 1.008000
18316 ca 16425 TPS CA5 18316 -0.1548 12.010000
18317 ha 16425 TPS HA5 18317 0.1282 1.008000
18318 ca 16425 TPS CA4 18318 -0.1028 12.010000
18319 ha 16425 TPS HA4 18319 0.1262 1.008000
18320 ca 16425 TPS CA3 18320 -0.1548 12.010000
18321 ha 16425 TPS HA3 18321 0.1282 1.008000
18322 ha 16426 TPS HA2 18322 0.1332 1.008000
18323 ca 16426 TPS CA2 18323 -0.0753 12.010000
18324 ca 16426 TPS CA1 18324 -0.361 12.010000
18325 si 16426 TPS Si 18325 1.1 28.085000
18326 ca 16426 TPS CA6 18326 -0.0753 12.010000
18327 ha 16426 TPS HH6 18327 0.1332 1.008000
18328 ca 16426 TPS CA5 18328 -0.1548 12.010000
18329 ha 16426 TPS HA5 18329 0.1282 1.008000
18330 ca 16426 TPS CA4 18330 -0.1028 12.010000
18331 ha 16426 TPS HA4 18331 0.1262 1.008000
18332 ca 16426 TPS CA3 18332 -0.1548 12.010000
18333 ha 16426 TPS HA3 18333 0.1282 1.008000
18334 ha 16427 TPS HA2 18334 0.1332 1.008000
18335 ca 16427 TPS CA2 18335 -0.0753 12.010000
18336 ca 16427 TPS CA1 18336 -0.361 12.010000
18337 si 16427 TPS Si 18337 1.1 28.085000
18338 ca 16427 TPS CA6 18338 -0.0753 12.010000
18339 ha 16427 TPS HH6 18339 0.1332 1.008000
18340 ca 16427 TPS CA5 18340 -0.1548 12.010000
18341 ha 16427 TPS HA5 18341 0.1282 1.008000
18342 ca 16427 TPS CA4 18342 -0.1028 12.010000
18343 ha 16427 TPS HA4 18343 0.1262 1.008000
18344 ca 16427 TPS CA3 18344 -0.1548 12.010000
18345 ha 16427 TPS HA3 18345 0.1282 1.008000
18346 ha 16428 TPS HA2 18346 0.1332 1.008000
18347 ca 16428 TPS CA2 18347 -0.0753 12.010000
18348 ca 16428 TPS CA1 18348 -0.361 12.010000
18349 si 16428 TPS Si 18349 1.1 28.085000
18350 ca 16428 TPS CA6 18350 -0.0753 12.010000
18351 ha 16428 TPS HH6 18351 0.1332 1.008000
18352 ca 16428 TPS CA5 18352 -0.1548 12.010000
18353 ha 16428 TPS HA5 18353 0.1282 1.008000
18354 ca 16428 TPS CA4 18354 -0.1028 12.010000
18355 ha 16428 TPS HA4 18355 0.1262 1.008000
18356 ca 16428 TPS CA3 18356 -0.1548 12.010000
18357 ha 16428 TPS HA3 18357 0.1282 1.008000
18358 ha 16429 TPS HA2 18358 0.1332 1.008000
18359 ca 16429 TPS CA2 18359 -0.0753 12.010000
18360 ca 16429 TPS CA1 18360 -0.361 12.010000
18361 si 16429 TPS Si 18361 1.1 28.085000
18362 ca 16429 TPS CA6 18362 -0.0753 12.010000
18363 ha 16429 TPS HH6 18363 0.1332 1.008000
18364 ca 16429 TPS CA5 18364 -0.1548 12.010000
18365 ha 16429 TPS HA5 18365 0.1282 1.008000
18366 ca 16429 TPS CA4 18366 -0.1028 12.010000
18367 ha 16429 TPS HA4 18367 0.1262 1.008000
18368 ca 16429 TPS CA3 18368 -0.1548 12.010000
18369 ha 16429 TPS HA3 18369 0.1282 1.008000
18370 ha 16430 TPS HA2 18370 0.1332 1.008000
18371 ca 16430 TPS CA2 18371 -0.0753 12.010000
18372 ca 16430 TPS CA1 18372 -0.361 12.010000
18373 si 16430 TPS Si 18373 1.1 28.085000
18374 ca 16430 TPS CA6 18374 -0.0753 12.010000
18375 ha 16430 TPS HH6 18375 0.1332 1.008000
18376 ca 16430 TPS CA5 18376 -0.1548 12.010000
18377 ha 16430 TPS HA5 18377 0.1282 1.008000
18378 ca 16430 TPS CA4 18378 -0.1028 12.010000
18379 ha 16430 TPS HA4 18379 0.1262 1.008000
18380 ca 16430 TPS CA3 18380 -0.1548 12.010000
18381 ha 16430 TPS HA3 18381 0.1282 1.008000
18382 ha 16431 TPS HA2 18382 0.1332 1.008000
18383 ca 16431 TPS CA2 18383 -0.0753 12.010000
18384 ca 16431 TPS CA1 18384 -0.361 12.010000
18385 si 16431 TPS Si 18385 1.1 28.085000
18386 ca 16431 TPS CA6 18386 -0.0753 12.010000
18387 ha 16431 TPS HH6 18387 0.1332 1.008000
18388 ca 16431 TPS CA5 18388 -0.1548 12.010000
18389 ha 16431 TPS HA5 18389 0.1282 1.008000
18390 ca 16431 TPS CA4 18390 -0.1028 12.010000
18391 ha 16431 TPS HA4 18391 0.1262 1.008000
18392 ca 16431 TPS CA3 18392 -0.1548 12.010000
18393 ha 16431 TPS HA3 18393 0.1282 1.008000
18394 ha 16432 TPS HA2 18394 0.1332 1.008000
18395 ca 16432 TPS CA2 18395 -0.0753 12.010000
18396 ca 16432 TPS CA1 18396 -0.361 12.010000
18397 si 16432 TPS Si 18397 1.1 28.085000
18398 ca 16432 TPS CA6 18398 -0.0753 12.010000
18399 ha 16432 TPS HH6 18399 0.1332 1.008000
18400 ca 16432 TPS CA5 18400 -0.1548 12.010000
18401 ha 16432 TPS HA5 18401 0.1282 1.008000
18402 ca 16432 TPS CA4 18402 -0.1028 12.010000
18403 ha 16432 TPS HA4 18403 0.1262 1.008000
18404 ca 16432 TPS CA3 18404 -0.1548 12.010000
18405 ha 16432 TPS HA3 18405 0.1282 1.008000
18406 ha 16433 TPS HA2 18406 0.1332 1.008000
18407 ca 16433 TPS CA2 18407 -0.0753 12.010000
18408 ca 16433 TPS CA1 18408 -0.361 12.010000
18409 si 16433 TPS Si 18409 1.1 28.085000
18410 ca 16433 TPS CA6 18410 -0.0753 12.010000
18411 ha 16433 TPS HH6 18411 0.1332 1.008000
18412 ca 16433 TPS CA5 18412 -0.1548 12.010000
18413 ha 16433 TPS HA5 18413 0.1282 1.008000
18414 ca 16433 TPS CA4 18414 -0.1028 12.010000
18415 ha 16433 TPS HA4 18415 0.1262 1.008000
18416 ca 16433 TPS CA3 18416 -0.1548 12.010000
18417 ha 16433 TPS HA3 18417 0.1282 1.008000
18418 ha 16434 TPS HA2 18418 0.1332 1.008000
18419 ca 16434 TPS CA2 18419 -0.0753 12.010000
18420 ca 16434 TPS CA1 18420 -0.361 12.010000
18421 si 16434 TPS Si 18421 1.1 28.085000
18422 ca 16434 TPS CA6 18422 -0.0753 12.010000
18423 ha 16434 TPS HH6 18423 0.1332 1.008000
18424 ca 16434 TPS CA5 18424 -0.1548 12.010000
18425 ha 16434 TPS HA5 18425 0.1282 1.008000
18426 ca 16434 TPS CA4 18426 -0.1028 12.010000
18427 ha 16434 TPS HA4 18427 0.1262 1.008000
18428 ca 16434 TPS CA3 18428 -0.1548 12.010000
18429 ha 16434 TPS HA3 18429 0.1282 1.008000
18430 ha 16435 TPS HA2 18430 0.1332 1.008000
18431 ca 16435 TPS CA2 18431 -0.0753 12.010000
18432 ca 16435 TPS CA1 18432 -0.361 12.010000
18433 si 16435 TPS Si 18433 1.1 28.085000
18434 ca 16435 TPS CA6 18434 -0.0753 12.010000
18435 ha 16435 TPS HH6 18435 0.1332 1.008000
18436 ca 16435 TPS CA5 18436 -0.1548 12.010000
18437 ha 16435 TPS HA5 18437 0.1282 1.008000
18438 ca 16435 TPS CA4 18438 -0.1028 12.010000
18439 ha 16435 TPS HA4 18439 0.1262 1.008000
18440 ca 16435 TPS CA3 18440 -0.1548 12.010000
18441 ha 16435 TPS HA3 18441 0.1282 1.008000
18442 ha 16436 TPS HA2 18442 0.1332 1.008000
18443 ca 16436 TPS CA2 18443 -0.0753 12.010000
18444 ca 16436 TPS CA1 18444 -0.361 12.010000
18445 si 16436 TPS Si 18445 1.1 28.085000
18446 ca 16436 TPS CA6 18446 -0.0753 12.010000
18447 ha 16436 TPS HH6 18447 0.1332 1.008000
18448 ca 16436 TPS CA5 18448 -0.1548 12.010000
18449 ha 16436 TPS HA5 18449 0.1282 1.008000
18450 ca 16436 TPS CA4 18450 -0.1028 12.010000
18451 ha 16436 TPS HA4 18451 0.1262 1.008000
18452 ca 16436 TPS CA3 18452 -0.1548 12.010000
18453 ha 16436 TPS HA3 18453 0.1282 1.008000
18454 ha 16437 TPS HA2 18454 0.1332 1.008000
18455 ca 16437 TPS CA2 18455 -0.0753 12.010000
18456 ca 16437 TPS CA1 18456 -0.361 12.010000
18457 si 16437 TPS Si 18457 1.1 28.085000
18458 ca 16437 TPS CA6 18458 -0.0753 12.010000
18459 ha 16437 TPS HH6 18459 0.1332 1.008000
18460 ca 16437 TPS CA5 18460 -0.1548 12.010000
18461 ha 16437 TPS HA5 18461 0.1282 1.008000
18462 ca 16437 TPS CA4 18462 -0.1028 12.010000
18463 ha 16437 TPS HA4 18463 0.1262 1.008000
18464 ca 16437 TPS CA3 18464 -0.1548 12.010000
18465 ha 16437 TPS HA3 18465 0.1282 1.008000
18466 ha 16438 TPS HA2 18466 0.1332 1.008000
18467 ca 16438 TPS CA2 18467 -0.0753 12.010000
18468 ca 16438 TPS CA1 18468 -0.361 12.010000
18469 si 16438 TPS Si 18469 1.1 28.085000
18470 ca 16438 TPS CA6 18470 -0.0753 12.010000
18471 ha 16438 TPS HH6 18471 0.1332 1.008000
18472 ca 16438 TPS CA5 18472 -0.1548 12.010000
18473 ha 16438 TPS HA5 18473 0.1282 1.008000
18474 ca 16438 TPS CA4 18474 -0.1028 12.010000
18475 ha 16438 TPS HA4 18475 0.1262 1.008000
18476 ca 16438 TPS CA3 18476 -0.1548 12.010000
18477 ha 16438 TPS HA3 18477 0.1282 1.008000
18478 ha 16439 TPS HA2 18478 0.1332 1.008000
18479 ca 16439 TPS CA2 18479 -0.0753 12.010000
18480 ca 16439 TPS CA1 18480 -0.361 12.010000
18481 si 16439 TPS Si 18481 1.1 28.085000
18482 ca 16439 TPS CA6 18482 -0.0753 12.010000
18483 ha 16439 TPS HH6 18483 0.1332 1.008000
18484 ca 16439 TPS CA5 18484 -0.1548 12.010000
18485 ha 16439 TPS HA5 18485 0.1282 1.008000
18486 ca 16439 TPS CA4 18486 -0.1028 12.010000
18487 ha 16439 TPS HA4 18487 0.1262 1.008000
18488 ca 16439 TPS CA3 18488 -0.1548 12.010000
18489 ha 16439 TPS HA3 18489 0.1282 1.008000
18490 ha 16440 TPS HA2 18490 0.1332 1.008000
18491 ca 16440 TPS CA2 18491 -0.0753 12.010000
18492 ca 16440 TPS CA1 18492 -0.361 12.010000
18493 si 16440 TPS Si 18493 1.1 28.085000
18494 ca 16440 TPS CA6 18494 -0.0753 12.010000
18495 ha 16440 TPS HH6 18495 0.1332 1.008000
18496 ca 16440 TPS CA5 18496 -0.1548 12.010000
18497 ha 16440 TPS HA5 18497 0.1282 1.008000
18498 ca 16440 TPS CA4 18498 -0.1028 12.010000
18499 ha 16440 TPS HA4 18499 0.1262 1.008000
18500 ca 16440 TPS CA3 18500 -0.1548 12.010000
18501 ha 16440 TPS HA3 18501 0.1282 1.008000
18502 ha 16441 TPS HA2 18502 0.1332 1.008000
18503 ca 16441 TPS CA2 18503 -0.0753 12.010000
18504 ca 16441 TPS CA1 18504 -0.361 12.010000
18505 si 16441 TPS Si 18505 1.1 28.085000
18506 ca 16441 TPS CA6 18506 -0.0753 12.010000
18507 ha 16441 TPS HH6 18507 0.1332 1.008000
18508 ca 16441 TPS CA5 18508 -0.1548 12.010000
18509 ha 16441 TPS HA5 18509 0.1282 1.008000
18510 ca 16441 TPS CA4 18510 -0.1028 12.010000
18511 ha 16441 TPS HA4 18511 0.1262 1.008000
18512 ca 16441 TPS CA3 18512 -0.1548 12.010000
18513 ha 16441 TPS HA3 18513 0.1282 1.008000
18514 ha 16442 TPS HA2 18514 0.1332 1.008000
18515 ca 16442 TPS CA2 18515 -0.0753 12.010000
18516 ca 16442 TPS CA1 18516 -0.361 12.010000
18517 si 16442 TPS Si 18517 1.1 28.085000
18518 ca 16442 TPS CA6 18518 -0.0753 12.010000
18519 ha 16442 TPS HH6 18519 0.1332 1.008000
18520 ca 16442 TPS CA5 18520 -0.1548 12.010000
18521 ha 16442 TPS HA5 18521 0.1282 1.008000
18522 ca 16442 TPS CA4 18522 -0.1028 12.010000
18523 ha 16442 TPS HA4 18523 0.1262 1.008000
18524 ca 16442 TPS CA3 18524 -0.1548 12.010000
18525 ha 16442 TPS HA3 18525 0.1282 1.008000
18526 ha 16443 TPS HA2 18526 0.1332 1.008000
18527 ca 16443 TPS CA2 18527 -0.0753 12.010000
18528 ca 16443 TPS CA1 18528 -0.361 12.010000
18529 si 16443 TPS Si 18529 1.1 28.085000
18530 ca 16443 TPS CA6 18530 -0.0753 12.010000
18531 ha 16443 TPS HH6 18531 0.1332 1.008000
18532 ca 16443 TPS CA5 18532 -0.1548 12.010000
18533 ha 16443 TPS HA5 18533 0.1282 1.008000
18534 ca 16443 TPS CA4 18534 -0.1028 12.010000
18535 ha 16443 TPS HA4 18535 0.1262 1.008000
18536 ca 16443 TPS CA3 18536 -0.1548 12.010000
18537 ha 16443 TPS HA3 18537 0.1282 1.008000
18538 ha 16444 TPS HA2 18538 0.1332 1.008000
18539 ca 16444 TPS CA2 18539 -0.0753 12.010000
18540 ca 16444 TPS CA1 18540 -0.361 12.010000
18541 si 16444 TPS Si 18541 1.1 28.085000
18542 ca 16444 TPS CA6 18542 -0.0753 12.010000
18543 ha 16444 TPS HH6 18543 0.1332 1.008000
18544 ca 16444 TPS CA5 18544 -0.1548 12.010000
18545 ha 16444 TPS HA5 18545 0.1282 1.008000
18546 ca 16444 TPS CA4 18546 -0.1028 12.010000
18547 ha 16444 TPS HA4 18547 0.1262 1.008000
18548 ca 16444 TPS CA3 18548 -0.1548 12.010000
18549 ha 16444 TPS HA3 18549 0.1282 1.008000
18550 ha 16445 TPS HA2 18550 0.1332 1.008000
18551 ca 16445 TPS CA2 18551 -0.0753 12.010000
18552 ca 16445 TPS CA1 18552 -0.361 12.010000
18553 si 16445 TPS Si 18553 1.1 28.085000
18554 ca 16445 TPS CA6 18554 -0.0753 12.010000
18555 ha 16445 TPS HH6 18555 0.1332 1.008000
18556 ca 16445 TPS CA5 18556 -0.1548 12.010000
18557 ha 16445 TPS HA5 18557 0.1282 1.008000
18558 ca 16445 TPS CA4 18558 -0.1028 12.010000
18559 ha 16445 TPS HA4 18559 0.1262 1.008000
18560 ca 16445 TPS CA3 18560 -0.1548 12.010000
18561 ha 16445 TPS HA3 18561 0.1282 1.008000
18562 ha 16446 TPS HA2 18562 0.1332 1.008000
18563 ca 16446 TPS CA2 18563 -0.0753 12.010000
18564 ca 16446 TPS CA1 18564 -0.361 12.010000
18565 si 16446 TPS Si 18565 1.1 28.085000
18566 ca 16446 TPS CA6 18566 -0.0753 12.010000
18567 ha 16446 TPS HH6 18567 0.1332 1.008000
18568 ca 16446 TPS CA5 18568 -0.1548 12.010000
18569 ha 16446 TPS HA5 18569 0.1282 1.008000
18570 ca 16446 TPS CA4 18570 -0.1028 12.010000
18571 ha 16446 TPS HA4 18571 0.1262 1.008000
18572 ca 16446 TPS CA3 18572 -0.1548 12.010000
18573 ha 16446 TPS HA3 18573 0.1282 1.008000
18574 ha 16447 TPS HA2 18574 0.1332 1.008000
18575 ca 16447 TPS CA2 18575 -0.0753 12.010000
18576 ca 16447 TPS CA1 18576 -0.361 12.010000
18577 si 16447 TPS Si 18577 1.1 28.085000
18578 ca 16447 TPS CA6 18578 -0.0753 12.010000
18579 ha 16447 TPS HH6 18579 0.1332 1.008000
18580 ca 16447 TPS CA5 18580 -0.1548 12.010000
18581 ha 16447 TPS HA5 18581 0.1282 1.008000
18582 ca 16447 TPS CA4 18582 -0.1028 12.010000
18583 ha 16447 TPS HA4 18583 0.1262 1.008000
18584 ca 16447 TPS CA3 18584 -0.1548 12.010000
18585 ha 16447 TPS HA3 18585 0.1282 1.008000
18586 ha 16448 TPS HA2 18586 0.1332 1.008000
18587 ca 16448 TPS CA2 18587 -0.0753 12.010000
18588 ca 16448 TPS CA1 18588 -0.361 12.010000
18589 si 16448 TPS Si 18589 1.1 28.085000
18590 ca 16448 TPS CA6 18590 -0.0753 12.010000
18591 ha 16448 TPS HH6 18591 0.1332 1.008000
18592 ca 16448 TPS CA5 18592 -0.1548 12.010000
18593 ha 16448 TPS HA5 18593 0.1282 1.008000
18594 ca 16448 TPS CA4 18594 -0.1028 12.010000
18595 ha 16448 TPS HA4 18595 0.1262 1.008000
18596 ca 16448 TPS CA3 18596 -0.1548 12.010000
18597 ha 16448 TPS HA3 18597 0.1282 1.008000
18598 ha 16449 TPS HA2 18598 0.1332 1.008000
18599 ca 16449 TPS CA2 18599 -0.0753 12.010000
18600 ca 16449 TPS CA1 18600 -0.361 12.010000
18601 si 16449 TPS Si 18601 1.1 28.085000
18602 ca 16449 TPS CA6 18602 -0.0753 12.010000
18603 ha 16449 TPS HH6 18603 0.1332 1.008000
18604 ca 16449 TPS CA5 18604 -0.1548 12.010000
18605 ha 16449 TPS HA5 18605 0.1282 1.008000
18606 ca 16449 TPS CA4 18606 -0.1028 12.010000
18607 ha 16449 TPS HA4 18607 0.1262 1.008000
18608 ca 16449 TPS CA3 18608 -0.1548 12.010000
18609 ha 16449 TPS HA3 18609 0.1282 1.008000
18610 ha 16450 TPS HA2 18610 0.1332 1.008000
18611 ca 16450 TPS CA2 18611 -0.0753 12.010000
18612 ca 16450 TPS CA1 18612 -0.361 12.010000
18613 si 16450 TPS Si 18613 1.1 28.085000
18614 ca 16450 TPS CA6 18614 -0.0753 12.010000
18615 ha 16450 TPS HH6 18615 0.1332 1.008000
18616 ca 16450 TPS CA5 18616 -0.1548 12.010000
18617 ha 16450 TPS HA5 18617 0.1282 1.008000
18618 ca 16450 TPS CA4 18618 -0.1028 12.010000
18619 ha 16450 TPS HA4 18619 0.1262 1.008000
18620 ca 16450 TPS CA3 18620 -0.1548 12.010000
18621 ha 16450 TPS HA3 18621 0.1282 1.008000
18622 ha 16451 TPS HA2 18622 0.1332 1.008000
18623 ca 16451 TPS CA2 18623 -0.0753 12.010000
18624 ca 16451 TPS CA1 18624 -0.361 12.010000
18625 si 16451 TPS Si 18625 1.1 28.085000
18626 ca 16451 TPS CA6 18626 -0.0753 12.010000
18627 ha 16451 TPS HH6 18627 0.1332 1.008000
18628 ca 16451 TPS CA5 18628 -0.1548 12.010000
18629 ha 16451 TPS HA5 18629 0.1282 1.008000
18630 ca 16451 TPS CA4 18630 -0.1028 12.010000
18631 ha 16451 TPS HA4 18631 0.1262 1.008000
18632 ca 16451 TPS CA3 18632 -0.1548 12.010000
18633 ha 16451 TPS HA3 18633 0.1282 1.008000
18634 ha 16452 TPS HA2 18634 0.1332 1.008000
18635 ca 16452 TPS CA2 18635 -0.0753 12.010000
18636 ca 16452 TPS CA1 18636 -0.361 12.010000
18637 si 16452 TPS Si 18637 1.1 28.085000
18638 ca 16452 TPS CA6 18638 -0.0753 12.010000
18639 ha 16452 TPS HH6 18639 0.1332 1.008000
18640 ca 16452 TPS CA5 18640 -0.1548 12.010000
18641 ha 16452 TPS HA5 18641 0.1282 1.008000
18642 ca 16452 TPS CA4 18642 -0.1028 12.010000
18643 ha 16452 TPS HA4 18643 0.1262 1.008000
18644 ca 16452 TPS CA3 18644 -0.1548 12.010000
18645 ha 16452 TPS HA3 18645 0.1282 1.008000
18646 ha 16453 TPS HA2 18646 0.1332 1.008000
18647 ca 16453 TPS CA2 18647 -0.0753 12.010000
18648 ca 16453 TPS CA1 18648 -0.361 12.010000
18649 si 16453 TPS Si 18649 1.1 28.085000
18650 ca 16453 TPS CA6 18650 -0.0753 12.010000
18651 ha 16453 TPS HH6 18651 0.1332 1.008000
18652 ca 16453 TPS CA5 18652 -0.1548 12.010000
18653 ha 16453 TPS HA5 18653 0.1282 1.008000
18654 ca 16453 TPS CA4 18654 -0.1028 12.010000
18655 ha 16453 TPS HA4 18655 0.1262 1.008000
18656 ca 16453 TPS CA3 18656 -0.1548 12.010000
18657 ha 16453 TPS HA3 18657 0.1282 1.008000
18658 ha 16454 TPS HA2 18658 0.1332 1.008000
18659 ca 16454 TPS CA2 18659 -0.0753 12.010000
18660 ca 16454 TPS CA1 18660 -0.361 12.010000
18661 si 16454 TPS Si 18661 1.1 28.085000
18662 ca 16454 TPS CA6 18662 -0.0753 12.010000
18663 ha 16454 TPS HH6 18663 0.1332 1.008000
18664 ca 16454 TPS CA5 18664 -0.1548 12.010000
18665 ha 16454 TPS HA5 18665 0.1282 1.008000
18666 ca 16454 TPS CA4 18666 -0.1028 12.010000
18667 ha 16454 TPS HA4 18667 0.1262 1.008000
18668 ca 16454 TPS CA3 18668 -0.1548 12.010000
18669 ha 16454 TPS HA3 18669 0.1282 1.008000
18670 ha 16455 TPS HA2 18670 0.1332 1.008000
18671 ca 16455 TPS CA2 18671 -0.0753 12.010000
18672 ca 16455 TPS CA1 18672 -0.361 12.010000
18673 si 16455 TPS Si 18673 1.1 28.085000
18674 ca 16455 TPS CA6 18674 -0.0753 12.010000
18675 ha 16455 TPS HH6 18675 0.1332 1.008000
18676 ca 16455 TPS CA5 18676 -0.1548 12.010000
18677 ha 16455 TPS HA5 18677 0.1282 1.008000
18678 ca 16455 TPS CA4 18678 -0.1028 12.010000
18679 ha 16455 TPS HA4 18679 0.1262 1.008000
18680 ca 16455 TPS CA3 18680 -0.1548 12.010000
18681 ha 16455 TPS HA3 18681 0.1282 1.008000
18682 ha 16456 TPS HA2 18682 0.1332 1.008000
18683 ca 16456 TPS CA2 18683 -0.0753 12.010000
18684 ca 16456 TPS CA1 18684 -0.361 12.010000
18685 si 16456 TPS Si 18685 1.1 28.085000
18686 ca 16456 TPS CA6 18686 -0.0753 12.010000
18687 ha 16456 TPS HH6 18687 0.1332 1.008000
18688 ca 16456 TPS CA5 18688 -0.1548 12.010000
18689 ha 16456 TPS HA5 18689 0.1282 1.008000
18690 ca 16456 TPS CA4 18690 -0.1028 12.010000
18691 ha 16456 TPS HA4 18691 0.1262 1.008000
18692 ca 16456 TPS CA3 18692 -0.1548 12.010000
18693 ha 16456 TPS HA3 18693 0.1282 1.008000
18694 ha 16457 TPS HA2 18694 0.1332 1.008000
18695 ca 16457 TPS CA2 18695 -0.0753 12.010000
18696 ca 16457 TPS CA1 18696 -0.361 12.010000
18697 si 16457 TPS Si 18697 1.1 28.085000
18698 ca 16457 TPS CA6 18698 -0.0753 12.010000
18699 ha 16457 TPS HH6 18699 0.1332 1.008000
18700 ca 16457 TPS CA5 18700 -0.1548 12.010000
18701 ha 16457 TPS HA5 18701 0.1282 1.008000
18702 ca 16457 TPS CA4 18702 -0.1028 12.010000
18703 ha 16457 TPS HA4 18703 0.1262 1.008000
18704 ca 16457 TPS CA3 18704 -0.1548 12.010000
18705 ha 16457 TPS HA3 18705 0.1282 1.008000
18706 ha 16458 TPS HA2 18706 0.1332 1.008000
18707 ca 16458 TPS CA2 18707 -0.0753 12.010000
18708 ca 16458 TPS CA1 18708 -0.361 12.010000
18709 si 16458 TPS Si 18709 1.1 28.085000
18710 ca 16458 TPS CA6 18710 -0.0753 12.010000
18711 ha 16458 TPS HH6 18711 0.1332 1.008000
18712 ca 16458 TPS CA5 18712 -0.1548 12.010000
18713 ha 16458 TPS HA5 18713 0.1282 1.008000
18714 ca 16458 TPS CA4 18714 -0.1028 12.010000
18715 ha 16458 TPS HA4 18715 0.1262 1.008000
18716 ca 16458 TPS CA3 18716 -0.1548 12.010000
18717 ha 16458 TPS HA3 18717 0.1282 1.008000
18718 ha 16459 TPS HA2 18718 0.1332 1.008000
18719 ca 16459 TPS CA2 18719 -0.0753 12.010000
18720 ca 16459 TPS CA1 18720 -0.361 12.010000
18721 si 16459 TPS Si 18721 1.1 28.085000
18722 ca 16459 TPS CA6 18722 -0.0753 12.010000
18723 ha 16459 TPS HH6 18723 0.1332 1.008000
18724 ca 16459 TPS CA5 18724 -0.1548 12.010000
18725 ha 16459 TPS HA5 18725 0.1282 1.008000
18726 ca 16459 TPS CA4 18726 -0.1028 12.010000
18727 ha 16459 TPS HA4 18727 0.1262 1.008000
18728 ca 16459 TPS CA3 18728 -0.1548 12.010000
18729 ha 16459 TPS HA3 18729 0.1282 1.008000
18730 ha 16460 TPS HA2 18730 0.1332 1.008000
18731 ca 16460 TPS CA2 18731 -0.0753 12.010000
18732 ca 16460 TPS CA1 18732 -0.361 12.010000
18733 si 16460 TPS Si 18733 1.1 28.085000
18734 ca 16460 TPS CA6 18734 -0.0753 12.010000
18735 ha 16460 TPS HH6 18735 0.1332 1.008000
18736 ca 16460 TPS CA5 18736 -0.1548 12.010000
18737 ha 16460 TPS HA5 18737 0.1282 1.008000
18738 ca 16460 TPS CA4 18738 -0.1028 12.010000
18739 ha 16460 TPS HA4 18739 0.1262 1.008000
18740 ca 16460 TPS CA3 18740 -0.1548 12.010000
18741 ha 16460 TPS HA3 18741 0.1282 1.008000
18742 ha 16461 TPS HA2 18742 0.1332 1.008000
18743 ca 16461 TPS CA2 18743 -0.0753 12.010000
18744 ca 16461 TPS CA1 18744 -0.361 12.010000
18745 si 16461 TPS Si 18745 1.1 28.085000
18746 ca 16461 TPS CA6 18746 -0.0753 12.010000
18747 ha 16461 TPS HH6 18747 0.1332 1.008000
18748 ca 16461 TPS CA5 18748 -0.1548 12.010000
18749 ha 16461 TPS HA5 18749 0.1282 1.008000
18750 ca 16461 TPS CA4 18750 -0.1028 12.010000
18751 ha 16461 TPS HA4 18751 0.1262 1.008000
18752 ca 16461 TPS CA3 18752 -0.1548 12.010000
18753 ha 16461 TPS HA3 18753 0.1282 1.008000
18754 ha 16462 TPS HA2 18754 0.1332 1.008000
18755 ca 16462 TPS CA2 18755 -0.0753 12.010000
18756 ca 16462 TPS CA1 18756 -0.361 12.010000
18757 si 16462 TPS Si 18757 1.1 28.085000
18758 ca 16462 TPS CA6 18758 -0.0753 12.010000
18759 ha 16462 TPS HH6 18759 0.1332 1.008000
18760 ca 16462 TPS CA5 18760 -0.1548 12.010000
18761 ha 16462 TPS HA5 18761 0.1282 1.008000
18762 ca 16462 TPS CA4 18762 -0.1028 12.010000
18763 ha 16462 TPS HA4 18763 0.1262 1.008000
18764 ca 16462 TPS CA3 18764 -0.1548 12.010000
18765 ha 16462 TPS HA3 18765 0.1282 1.008000
18766 ha 16463 TPS HA2 18766 0.1332 1.008000
18767 ca 16463 TPS CA2 18767 -0.0753 12.010000
18768 ca 16463 TPS CA1 18768 -0.361 12.010000
18769 si 16463 TPS Si 18769 1.1 28.085000
18770 ca 16463 TPS CA6 18770 -0.0753 12.010000
18771 ha 16463 TPS HH6 18771 0.1332 1.008000
18772 ca 16463 TPS CA5 18772 -0.1548 12.010000
18773 ha 16463 TPS HA5 18773 0.1282 1.008000
18774 ca 16463 TPS CA4 18774 -0.1028 12.010000
18775 ha 16463 TPS HA4 18775 0.1262 1.008000
18776 ca 16463 TPS CA3 18776 -0.1548 12.010000
18777 ha 16463 TPS HA3 18777 0.1282 1.008000
18778 ha 16464 TPS HA2 18778 0.1332 1.008000
18779 ca 16464 TPS CA2 18779 -0.0753 12.010000
18780 ca 16464 TPS CA1 18780 -0.361 12.010000
18781 si 16464 TPS Si 18781 1.1 28.085000
18782 ca 16464 TPS CA6 18782 -0.0753 12.010000
18783 ha 16464 TPS HH6 18783 0.1332 1.008000
18784 ca 16464 TPS CA5 18784 -0.1548 12.010000
18785 ha 16464 TPS HA5 18785 0.1282 1.008000
18786 ca 16464 TPS CA4 18786 -0.1028 12.010000
18787 ha 16464 TPS HA4 18787 0.1262 1.008000
18788 ca 16464 TPS CA3 18788 -0.1548 12.010000
18789 ha 16464 TPS HA3 18789 0.1282 1.008000
18790 ha 16465 TPS HA2 18790 0.1332 1.008000
18791 ca 16465 TPS CA2 18791 -0.0753 12.010000
18792 ca 16465 TPS CA1 18792 -0.361 12.010000
18793 si 16465 TPS Si 18793 1.1 28.085000
18794 ca 16465 TPS CA6 18794 -0.0753 12.010000
18795 ha 16465 TPS HH6 18795 0.1332 1.008000
18796 ca 16465 TPS CA5 18796 -0.1548 12.010000
18797 ha 16465 TPS HA5 18797 0.1282 1.008000
18798 ca 16465 TPS CA4 18798 -0.1028 12.010000
18799 ha 16465 TPS HA4 18799 0.1262 1.008000
18800 ca 16465 TPS CA3 18800 -0.1548 12.010000
18801 ha 16465 TPS HA3 18801 0.1282 1.008000
18802 ha 16466 TPS HA2 18802 0.1332 1.008000
18803 ca 16466 TPS CA2 18803 -0.0753 12.010000
18804 ca 16466 TPS CA1 18804 -0.361 12.010000
18805 si 16466 TPS Si 18805 1.1 28.085000
18806 ca 16466 TPS CA6 18806 -0.0753 12.010000
18807 ha 16466 TPS HH6 18807 0.1332 1.008000
18808 ca 16466 TPS CA5 18808 -0.1548 12.010000
18809 ha 16466 TPS HA5 18809 0.1282 1.008000
18810 ca 16466 TPS CA4 18810 -0.1028 12.010000
18811 ha 16466 TPS HA4 18811 0.1262 1.008000
18812 ca 16466 TPS CA3 18812 -0.1548 12.010000
18813 ha 16466 TPS HA3 18813 0.1282 1.008000
18814 ha 16467 TPS HA2 18814 0.1332 1.008000
18815 ca 16467 TPS CA2 18815 -0.0753 12.010000
18816 ca 16467 TPS CA1 18816 -0.361 12.010000
18817 si 16467 TPS Si 18817 1.1 28.085000
18818 ca 16467 TPS CA6 18818 -0.0753 12.010000
18819 ha 16467 TPS HH6 18819 0.1332 1.008000
18820 ca 16467 TPS CA5 18820 -0.1548 12.010000
18821 ha 16467 TPS HA5 18821 0.1282 1.008000
18822 ca 16467 TPS CA4 18822 -0.1028 12.010000
18823 ha 16467 TPS HA4 18823 0.1262 1.008000
18824 ca 16467 TPS CA3 18824 -0.1548 12.010000
18825 ha 16467 TPS HA3 18825 0.1282 1.008000
18826 ha 16468 TPS HA2 18826 0.1332 1.008000
18827 ca 16468 TPS CA2 18827 -0.0753 12.010000
18828 ca 16468 TPS CA1 18828 -0.361 12.010000
18829 si 16468 TPS Si 18829 1.1 28.085000
18830 ca 16468 TPS CA6 18830 -0.0753 12.010000
18831 ha 16468 TPS HH6 18831 0.1332 1.008000
18832 ca 16468 TPS CA5 18832 -0.1548 12.010000
18833 ha 16468 TPS HA5 18833 0.1282 1.008000
18834 ca 16468 TPS CA4 18834 -0.1028 12.010000
18835 ha 16468 TPS HA4 18835 0.1262 1.008000
18836 ca 16468 TPS CA3 18836 -0.1548 12.010000
18837 ha 16468 TPS HA3 18837 0.1282 1.008000
18838 ha 16469 TPS HA2 18838 0.1332 1.008000
18839 ca 16469 TPS CA2 18839 -0.0753 12.010000
18840 ca 16469 TPS CA1 18840 -0.361 12.010000
18841 si 16469 TPS Si 18841 1.1 28.085000
18842 ca 16469 TPS CA6 18842 -0.0753 12.010000
18843 ha 16469 TPS HH6 18843 0.1332 1.008000
18844 ca 16469 TPS CA5 18844 -0.1548 12.010000
18845 ha 16469 TPS HA5 18845 0.1282 1.008000
18846 ca 16469 TPS CA4 18846 -0.1028 12.010000
18847 ha 16469 TPS HA4 18847 0.1262 1.008000
18848 ca 16469 TPS CA3 18848 -0.1548 12.010000
18849 ha 16469 TPS HA3 18849 0.1282 1.008000
18850 ha 16470 TPS HA2 18850 0.1332 1.008000
18851 ca 16470 TPS CA2 18851 -0.0753 12.010000
18852 ca 16470 TPS CA1 18852 -0.361 12.010000
18853 si 16470 TPS Si 18853 1.1 28.085000
18854 ca 16470 TPS CA6 18854 -0.0753 12.010000
18855 ha 16470 TPS HH6 18855 0.1332 1.008000
18856 ca 16470 TPS CA5 18856 -0.1548 12.010000
18857 ha 16470 TPS HA5 18857 0.1282 1.008000
18858 ca 16470 TPS CA4 18858 -0.1028 12.010000
18859 ha 16470 TPS HA4 18859 0.1262 1.008000
18860 ca 16470 TPS CA3 18860 -0.1548 12.010000
18861 ha 16470 TPS HA3 18861 0.1282 1.008000
18862 ha 16471 TPS HA2 18862 0.1332 1.008000
18863 ca 16471 TPS CA2 18863 -0.0753 12.010000
18864 ca 16471 TPS CA1 18864 -0.361 12.010000
18865 si 16471 TPS Si 18865 1.1 28.085000
18866 ca 16471 TPS CA6 18866 -0.0753 12.010000
18867 ha 16471 TPS HH6 18867 0.1332 1.008000
18868 ca 16471 TPS CA5 18868 -0.1548 12.010000
18869 ha 16471 TPS HA5 18869 0.1282 1.008000
18870 ca 16471 TPS CA4 18870 -0.1028 12.010000
18871 ha 16471 TPS HA4 18871 0.1262 1.008000
18872 ca 16471 TPS CA3 18872 -0.1548 12.010000
18873 ha 16471 TPS HA3 18873 0.1282 1.008000
18874 ha 16472 TPS HA2 18874 0.1332 1.008000
18875 ca 16472 TPS CA2 18875 -0.0753 12.010000
18876 ca 16472 TPS CA1 18876 -0.361 12.010000
18877 si 16472 TPS Si 18877 1.1 28.085000
18878 ca 16472 TPS CA6 18878 -0.0753 12.010000
18879 ha 16472 TPS HH6 18879 0.1332 1.008000
18880 ca 16472 TPS CA5 18880 -0.1548 12.010000
18881 ha 16472 TPS HA5 18881 0.1282 1.008000
18882 ca 16472 TPS CA4 18882 -0.1028 12.010000
18883 ha 16472 TPS HA4 18883 0.1262 1.008000
18884 ca 16472 TPS CA3 18884 -0.1548 12.010000
18885 ha 16472 TPS HA3 18885 0.1282 1.008000
18886 ha 16473 TPS HA2 18886 0.1332 1.008000
18887 ca 16473 TPS CA2 18887 -0.0753 12.010000
18888 ca 16473 TPS CA1 18888 -0.361 12.010000
18889 si 16473 TPS Si 18889 1.1 28.085000
18890 ca 16473 TPS CA6 18890 -0.0753 12.010000
18891 ha 16473 TPS HH6 18891 0.1332 1.008000
18892 ca 16473 TPS CA5 18892 -0.1548 12.010000
18893 ha 16473 TPS HA5 18893 0.1282 1.008000
18894 ca 16473 TPS CA4 18894 -0.1028 12.010000
18895 ha 16473 TPS HA4 18895 0.1262 1.008000
18896 ca 16473 TPS CA3 18896 -0.1548 12.010000
18897 ha 16473 TPS HA3 18897 0.1282 1.008000
18898 ha 16474 TPS HA2 18898 0.1332 1.008000
18899 ca 16474 TPS CA2 18899 -0.0753 12.010000
18900 ca 16474 TPS CA1 18900 -0.361 12.010000
18901 si 16474 TPS Si 18901 1.1 28.085000
18902 ca 16474 TPS CA6 18902 -0.0753 12.010000
18903 ha 16474 TPS HH6 18903 0.1332 1.008000
18904 ca 16474 TPS CA5 18904 -0.1548 12.010000
18905 ha 16474 TPS HA5 18905 0.1282 1.008000
18906 ca 16474 TPS CA4 18906 -0.1028 12.010000
18907 ha 16474 TPS HA4 18907 0.1262 1.008000
18908 ca 16474 TPS CA3 18908 -0.1548 12.010000
18909 ha 16474 TPS HA3 18909 0.1282 1.008000
18910 ha 16475 TPS HA2 18910 0.1332 1.008000
18911 ca 16475 TPS CA2 18911 -0.0753 12.010000
18912 ca 16475 TPS CA1 18912 -0.361 12.010000
18913 si 16475 TPS Si 18913 1.1 28.085000
18914 ca 16475 TPS CA6 18914 -0.0753 12.010000
18915 ha 16475 TPS HH6 18915 0.1332 1.008000
18916 ca 16475 TPS CA5 18916 -0.1548 12.010000
18917 ha 16475 TPS HA5 18917 0.1282 1.008000
18918 ca 16475 TPS CA4 18918 -0.1028 12.010000
18919 ha 16475 TPS HA4 18919 0.1262 1.008000
18920 ca 16475 TPS CA3 18920 -0.1548 12.010000
18921 ha 16475 TPS HA3 18921 0.1282 1.008000
18922 ha 16476 TPS HA2 18922 0.1332 1.008000
18923 ca 16476 TPS CA2 18923 -0.0753 12.010000
18924 ca 16476 TPS CA1 18924 -0.361 12.010000
18925 si 16476 TPS Si 18925 1.1 28.085000
18926 ca 16476 TPS CA6 18926 -0.0753 12.010000
18927 ha 16476 TPS HH6 18927 0.1332 1.008000
18928 ca 16476 TPS CA5 18928 -0.1548 12.010000
18929 ha 16476 TPS HA5 18929 0.1282 1.008000
18930 ca 16476 TPS CA4 18930 -0.1028 12.010000
18931 ha 16476 TPS HA4 18931 0.1262 1.008000
18932 ca 16476 TPS CA3 18932 -0.1548 12.010000
18933 ha 16476 TPS HA3 18933 0.1282 1.008000
18934 ha 16477 TPS HA2 18934 0.1332 1.008000
18935 ca 16477 TPS CA2 18935 -0.0753 12.010000
18936 ca 16477 TPS CA1 18936 -0.361 12.010000
18937 si 16477 TPS Si 18937 1.1 28.085000
18938 ca 16477 TPS CA6 18938 -0.0753 12.010000
18939 ha 16477 TPS HH6 18939 0.1332 1.008000
18940 ca 16477 TPS CA5 18940 -0.1548 12.010000
18941 ha 16477 TPS HA5 18941 0.1282 1.008000
18942 ca 16477 TPS CA4 18942 -0.1028 12.010000
18943 ha 16477 TPS HA4 18943 0.1262 1.008000
18944 ca 16477 TPS CA3 18944 -0.1548 12.010000
18945 ha 16477 TPS HA3 18945 0.1282 1.008000
18946 ha 16478 TPS HA2 18946 0.1332 1.008000
18947 ca 16478 TPS CA2 18947 -0.0753 12.010000
18948 ca 16478 TPS CA1 18948 -0.361 12.010000
18949 si 16478 TPS Si 18949 1.1 28.085000
18950 ca 16478 TPS CA6 18950 -0.0753 12.010000
18951 ha 16478 TPS HH6 18951 0.1332 1.008000
18952 ca 16478 TPS CA5 18952 -0.1548 12.010000
18953 ha 16478 TPS HA5 18953 0.1282 1.008000
18954 ca 16478 TPS CA4 18954 -0.1028 12.010000
18955 ha 16478 TPS HA4 18955 0.1262 1.008000
18956 ca 16478 TPS CA3 18956 -0.1548 12.010000
18957 ha 16478 TPS HA3 18957 0.1282 1.008000
18958 ha 16479 TPS HA2 18958 0.1332 1.008000
18959 ca 16479 TPS CA2 18959 -0.0753 12.010000
18960 ca 16479 TPS CA1 18960 -0.361 12.010000
18961 si 16479 TPS Si 18961 1.1 28.085000
18962 ca 16479 TPS CA6 18962 -0.0753 12.010000
18963 ha 16479 TPS HH6 18963 0.1332 1.008000
18964 ca 16479 TPS CA5 18964 -0.1548 12.010000
18965 ha 16479 TPS HA5 18965 0.1282 1.008000
18966 ca 16479 TPS CA4 18966 -0.1028 12.010000
18967 ha 16479 TPS HA4 18967 0.1262 1.008000
18968 ca 16479 TPS CA3 18968 -0.1548 12.010000
18969 ha 16479 TPS HA3 18969 0.1282 1.008000
18970 ha 16480 TPS HA2 18970 0.1332 1.008000
18971 ca 16480 TPS CA2 18971 -0.0753 12.010000
18972 ca 16480 TPS CA1 18972 -0.361 12.010000
18973 si 16480 TPS Si 18973 1.1 28.085000
18974 ca 16480 TPS CA6 18974 -0.0753 12.010000
18975 ha 16480 TPS HH6 18975 0.1332 1.008000
18976 ca 16480 TPS CA5 18976 -0.1548 12.010000
18977 ha 16480 TPS HA5 18977 0.1282 1.008000
18978 ca 16480 TPS CA4 18978 -0.1028 12.010000
18979 ha 16480 TPS HA4 18979 0.1262 1.008000
18980 ca 16480 TPS CA3 18980 -0.1548 12.010000
18981 ha 16480 TPS HA3 18981 0.1282 1.008000
18982 ha 16481 TPS HA2 18982 0.1332 1.008000
18983 ca 16481 TPS CA2 18983 -0.0753 12.010000
18984 ca 16481 TPS CA1 18984 -0.361 12.010000
18985 si 16481 TPS Si 18985 1.1 28.085000
18986 ca 16481 TPS CA6 18986 -0.0753 12.010000
18987 ha 16481 TPS HH6 18987 0.1332 1.008000
18988 ca 16481 TPS CA5 18988 -0.1548 12.010000
18989 ha 16481 TPS HA5 18989 0.1282 1.008000
18990 ca 16481 TPS CA4 18990 -0.1028 12.010000
18991 ha 16481 TPS HA4 18991 0.1262 1.008000
18992 ca 16481 TPS CA3 18992 -0.1548 12.010000
18993 ha 16481 TPS HA3 18993 0.1282 1.008000
18994 ha 16482 TPS HA2 18994 0.1332 1.008000
18995 ca 16482 TPS CA2 18995 -0.0753 12.010000
18996 ca 16482 TPS CA1 18996 -0.361 12.010000
18997 si 16482 TPS Si 18997 1.1 28.085000
18998 ca 16482 TPS CA6 18998 -0.0753 12.010000
18999 ha 16482 TPS HH6 18999 0.1332 1.008000
19000 ca 16482 TPS CA5 19000 -0.1548 12.010000
19001 ha 16482 TPS HA5 19001 0.1282 1.008000
19002 ca 16482 TPS CA4 19002 -0.1028 12.010000
19003 ha 16482 TPS HA4 19003 0.1262 1.008000
19004 ca 16482 TPS CA3 19004 -0.1548 12.010000
19005 ha 16482 TPS HA3 19005 0.1282 1.008000
19006 ha 16483 TPS HA2 19006 0.1332 1.008000
19007 ca 16483 TPS CA2 19007 -0.0753 12.010000
19008 ca 16483 TPS CA1 19008 -0.361 12.010000
19009 si 16483 TPS Si 19009 1.1 28.085000
19010 ca 16483 TPS CA6 19010 -0.0753 12.010000
19011 ha 16483 TPS HH6 19011 0.1332 1.008000
19012 ca 16483 TPS CA5 19012 -0.1548 12.010000
19013 ha 16483 TPS HA5 19013 0.1282 1.008000
19014 ca 16483 TPS CA4 19014 -0.1028 12.010000
19015 ha 16483 TPS HA4 19015 0.1262 1.008000
19016 ca 16483 TPS CA3 19016 -0.1548 12.010000
19017 ha 16483 TPS HA3 19017 0.1282 1.008000
19018 ha 16484 TPS HA2 19018 0.1332 1.008000
19019 ca 16484 TPS CA2 19019 -0.0753 12.010000
19020 ca 16484 TPS CA1 19020 -0.361 12.010000
19021 si 16484 TPS Si 19021 1.1 28.085000
19022 ca 16484 TPS CA6 19022 -0.0753 12.010000
19023 ha 16484 TPS HH6 19023 0.1332 1.008000
19024 ca 16484 TPS CA5 19024 -0.1548 12.010000
19025 ha 16484 TPS HA5 19025 0.1282 1.008000
19026 ca 16484 TPS CA4 19026 -0.1028 12.010000
19027 ha 16484 TPS HA4 19027 0.1262 1.008000
19028 ca 16484 TPS CA3 19028 -0.1548 12.010000
19029 ha 16484 TPS HA3 19029 0.1282 1.008000
19030 ha 16485 TPS HA2 19030 0.1332 1.008000
19031 ca 16485 TPS CA2 19031 -0.0753 12.010000
19032 ca 16485 TPS CA1 19032 -0.361 12.010000
19033 si 16485 TPS Si 19033 1.1 28.085000
19034 ca 16485 TPS CA6 19034 -0.0753 12.010000
19035 ha 16485 TPS HH6 19035 0.1332 1.008000
19036 ca 16485 TPS CA5 19036 -0.1548 12.010000
19037 ha 16485 TPS HA5 19037 0.1282 1.008000
19038 ca 16485 TPS CA4 19038 -0.1028 12.010000
19039 ha 16485 TPS HA4 19039 0.1262 1.008000
19040 ca 16485 TPS CA3 19040 -0.1548 12.010000
19041 ha 16485 TPS HA3 19041 0.1282 1.008000
19042 ha 16486 TPS HA2 19042 0.1332 1.008000
19043 ca 16486 TPS CA2 19043 -0.0753 12.010000
19044 ca 16486 TPS CA1 19044 -0.361 12.010000
19045 si 16486 TPS Si 19045 1.1 28.085000
19046 ca 16486 TPS CA6 19046 -0.0753 12.010000
19047 ha 16486 TPS HH6 19047 0.1332 1.008000
19048 ca 16486 TPS CA5 19048 -0.1548 12.010000
19049 ha 16486 TPS HA5 19049 0.1282 1.008000
19050 ca 16486 TPS CA4 19050 -0.1028 12.010000
19051 ha 16486 TPS HA4 19051 0.1262 1.008000
19052 ca 16486 TPS CA3 19052 -0.1548 12.010000
19053 ha 16486 TPS HA3 19053 0.1282 1.008000
19054 ha 16487 TPS HA2 19054 0.1332 1.008000
19055 ca 16487 TPS CA2 19055 -0.0753 12.010000
19056 ca 16487 TPS CA1 19056 -0.361 12.010000
19057 si 16487 TPS Si 19057 1.1 28.085000
19058 ca 16487 TPS CA6 19058 -0.0753 12.010000
19059 ha 16487 TPS HH6 19059 0.1332 1.008000
19060 ca 16487 TPS CA5 19060 -0.1548 12.010000
19061 ha 16487 TPS HA5 19061 0.1282 1.008000
19062 ca 16487 TPS CA4 19062 -0.1028 12.010000
19063 ha 16487 TPS HA4 19063 0.1262 1.008000
19064 ca 16487 TPS CA3 19064 -0.1548 12.010000
19065 ha 16487 TPS HA3 19065 0.1282 1.008000
19066 ha 16488 TPS HA2 19066 0.1332 1.008000
19067 ca 16488 TPS CA2 19067 -0.0753 12.010000
19068 ca 16488 TPS CA1 19068 -0.361 12.010000
19069 si 16488 TPS Si 19069 1.1 28.085000
19070 ca 16488 TPS CA6 19070 -0.0753 12.010000
19071 ha 16488 TPS HH6 19071 0.1332 1.008000
19072 ca 16488 TPS CA5 19072 -0.1548 12.010000
19073 ha 16488 TPS HA5 19073 0.1282 1.008000
19074 ca 16488 TPS CA4 19074 -0.1028 12.010000
19075 ha 16488 TPS HA4 19075 0.1262 1.008000
19076 ca 16488 TPS CA3 19076 -0.1548 12.010000
19077 ha 16488 TPS HA3 19077 0.1282 1.008000
19078 ha 16489 TPS HA2 19078 0.1332 1.008000
19079 ca 16489 TPS CA2 19079 -0.0753 12.010000
19080 ca 16489 TPS CA1 19080 -0.361 12.010000
19081 si 16489 TPS Si 19081 1.1 28.085000
19082 ca 16489 TPS CA6 19082 -0.0753 12.010000
19083 ha 16489 TPS HH6 19083 0.1332 1.008000
19084 ca 16489 TPS CA5 19084 -0.1548 12.010000
19085 ha 16489 TPS HA5 19085 0.1282 1.008000
19086 ca 16489 TPS CA4 19086 -0.1028 12.010000
19087 ha 16489 TPS HA4 19087 0.1262 1.008000
19088 ca 16489 TPS CA3 19088 -0.1548 12.010000
19089 ha 16489 TPS HA3 19089 0.1282 1.008000
19090 ha 16490 TPS HA2 19090 0.1332 1.008000
19091 ca 16490 TPS CA2 19091 -0.0753 12.010000
19092 ca 16490 TPS CA1 19092 -0.361 12.010000
19093 si 16490 TPS Si 19093 1.1 28.085000
19094 ca 16490 TPS CA6 19094 -0.0753 12.010000
19095 ha 16490 TPS HH6 19095 0.1332 1.008000
19096 ca 16490 TPS CA5 19096 -0.1548 12.010000
19097 ha 16490 TPS HA5 19097 0.1282 1.008000
19098 ca 16490 TPS CA4 19098 -0.1028 12.010000
19099 ha 16490 TPS HA4 19099 0.1262 1.008000
19100 ca 16490 TPS CA3 19100 -0.1548 12.010000
19101 ha 16490 TPS HA3 19101 0.1282 1.008000
19102 ha 16491 TPS HA2 19102 0.1332 1.008000
19103 ca 16491 TPS CA2 19103 -0.0753 12.010000
19104 ca 16491 TPS CA1 19104 -0.361 12.010000
19105 si 16491 TPS Si 19105 1.1 28.085000
19106 ca 16491 TPS CA6 19106 -0.0753 12.010000
19107 ha 16491 TPS HH6 19107 0.1332 1.008000
19108 ca 16491 TPS CA5 19108 -0.1548 12.010000
19109 ha 16491 TPS HA5 19109 0.1282 1.008000
19110 ca 16491 TPS CA4 19110 -0.1028 12.010000
19111 ha 16491 TPS HA4 19111 0.1262 1.008000
19112 ca 16491 TPS CA3 19112 -0.1548 12.010000
19113 ha 16491 TPS HA3 19113 0.1282 1.008000
19114 ha 16492 TPS HA2 19114 0.1332 1.008000
19115 ca 16492 TPS CA2 19115 -0.0753 12.010000
19116 ca 16492 TPS CA1 19116 -0.361 12.010000
19117 si 16492 TPS Si 19117 1.1 28.085000
19118 ca 16492 TPS CA6 19118 -0.0753 12.010000
19119 ha 16492 TPS HH6 19119 0.1332 1.008000
19120 ca 16492 TPS CA5 19120 -0.1548 12.010000
19121 ha 16492 TPS HA5 19121 0.1282 1.008000
19122 ca 16492 TPS CA4 19122 -0.1028 12.010000
19123 ha 16492 TPS HA4 19123 0.1262 1.008000
19124 ca 16492 TPS CA3 19124 -0.1548 12.010000
19125 ha 16492 TPS HA3 19125 0.1282 1.008000
19126 ha 16493 TPS HA2 19126 0.1332 1.008000
19127 ca 16493 TPS CA2 19127 -0.0753 12.010000
19128 ca 16493 TPS CA1 19128 -0.361 12.010000
19129 si 16493 TPS Si 19129 1.1 28.085000
19130 ca 16493 TPS CA6 19130 -0.0753 12.010000
19131 ha 16493 TPS HH6 19131 0.1332 1.008000
19132 ca 16493 TPS CA5 19132 -0.1548 12.010000
19133 ha 16493 TPS HA5 19133 0.1282 1.008000
19134 ca 16493 TPS CA4 19134 -0.1028 12.010000
19135 ha 16493 TPS HA4 19135 0.1262 1.008000
19136 ca 16493 TPS CA3 19136 -0.1548 12.010000
19137 ha 16493 TPS HA3 19137 0.1282 1.008000
19138 ha 16494 TPS HA2 19138 0.1332 1.008000
19139 ca 16494 TPS CA2 19139 -0.0753 12.010000
19140 ca 16494 TPS CA1 19140 -0.361 12.010000
19141 si 16494 TPS Si 19141 1.1 28.085000
19142 ca 16494 TPS CA6 19142 -0.0753 12.010000
19143 ha 16494 TPS HH6 19143 0.1332 1.008000
19144 ca 16494 TPS CA5 19144 -0.1548 12.010000
19145 ha 16494 TPS HA5 19145 0.1282 1.008000
19146 ca 16494 TPS CA4 19146 -0.1028 12.010000
19147 ha 16494 TPS HA4 19147 0.1262 1.008000
19148 ca 16494 TPS CA3 19148 -0.1548 12.010000
19149 ha 16494 TPS HA3 19149 0.1282 1.008000
19150 ha 16495 TPS HA2 19150 0.1332 1.008000
19151 ca 16495 TPS CA2 19151 -0.0753 12.010000
19152 ca 16495 TPS CA1 19152 -0.361 12.010000
19153 si 16495 TPS Si 19153 1.1 28.085000
19154 ca 16495 TPS CA6 19154 -0.0753 12.010000
19155 ha 16495 TPS HH6 19155 0.1332 1.008000
19156 ca 16495 TPS CA5 19156 -0.1548 12.010000
19157 ha 16495 TPS HA5 19157 0.1282 1.008000
19158 ca 16495 TPS CA4 19158 -0.1028 12.010000
19159 ha 16495 TPS HA4 19159 0.1262 1.008000
19160 ca 16495 TPS CA3 19160 -0.1548 12.010000
19161 ha 16495 TPS HA3 19161 0.1282 1.008000
19162 ha 16496 TPS HA2 19162 0.1332 1.008000
19163 ca 16496 TPS CA2 19163 -0.0753 12.010000
19164 ca 16496 TPS CA1 19164 -0.361 12.010000
19165 si 16496 TPS Si 19165 1.1 28.085000
19166 ca 16496 TPS CA6 19166 -0.0753 12.010000
19167 ha 16496 TPS HH6 19167 0.1332 1.008000
19168 ca 16496 TPS CA5 19168 -0.1548 12.010000
19169 ha 16496 TPS HA5 19169 0.1282 1.008000
19170 ca 16496 TPS CA4 19170 -0.1028 12.010000
19171 ha 16496 TPS HA4 19171 0.1262 1.008000
19172 ca 16496 TPS CA3 19172 -0.1548 12.010000
19173 ha 16496 TPS HA3 19173 0.1282 1.008000
19174 ha 16497 TPS HA2 19174 0.1332 1.008000
19175 ca 16497 TPS CA2 19175 -0.0753 12.010000
19176 ca 16497 TPS CA1 19176 -0.361 12.010000
19177 si 16497 TPS Si 19177 1.1 28.085000
19178 ca 16497 TPS CA6 19178 -0.0753 12.010000
19179 ha 16497 TPS HH6 19179 0.1332 1.008000
19180 ca 16497 TPS CA5 19180 -0.1548 12.010000
19181 ha 16497 TPS HA5 19181 0.1282 1.008000
19182 ca 16497 TPS CA4 19182 -0.1028 12.010000
19183 ha 16497 TPS HA4 19183 0.1262 1.008000
19184 ca 16497 TPS CA3 19184 -0.1548 12.010000
19185 ha 16497 TPS HA3 19185 0.1282 1.008000
19186 ha 16498 TPS HA2 19186 0.1332 1.008000
19187 ca 16498 TPS CA2 19187 -0.0753 12.010000
19188 ca 16498 TPS CA1 19188 -0.361 12.010000
19189 si 16498 TPS Si 19189 1.1 28.085000
19190 ca 16498 TPS CA6 19190 -0.0753 12.010000
19191 ha 16498 TPS HH6 19191 0.1332 1.008000
19192 ca 16498 TPS CA5 19192 -0.1548 12.010000
19193 ha 16498 TPS HA5 19193 0.1282 1.008000
19194 ca 16498 TPS CA4 19194 -0.1028 12.010000
19195 ha 16498 TPS HA4 19195 0.1262 1.008000
19196 ca 16498 TPS CA3 19196 -0.1548 12.010000
19197 ha 16498 TPS HA3 19197 0.1282 1.008000
19198 ha 16499 TPS HA2 19198 0.1332 1.008000
19199 ca 16499 TPS CA2 19199 -0.0753 12.010000
19200 ca 16499 TPS CA1 19200 -0.361 12.010000
19201 si 16499 TPS Si 19201 1.1 28.085000
19202 ca 16499 TPS CA6 19202 -0.0753 12.010000
19203 ha 16499 TPS HH6 19203 0.1332 1.008000
19204 ca 16499 TPS CA5 19204 -0.1548 12.010000
19205 ha 16499 TPS HA5 19205 0.1282 1.008000
19206 ca 16499 TPS CA4 19206 -0.1028 12.010000
19207 ha 16499 TPS HA4 19207 0.1262 1.008000
19208 ca 16499 TPS CA3 19208 -0.1548 12.010000
19209 ha 16499 TPS HA3 19209 0.1282 1.008000
19210 ha 16500 TPS HA2 19210 0.1332 1.008000
19211 ca 16500 TPS CA2 19211 -0.0753 12.010000
19212 ca 16500 TPS CA1 19212 -0.361 12.010000
19213 si 16500 TPS Si 19213 1.1 28.085000
19214 ca 16500 TPS CA6 19214 -0.0753 12.010000
19215 ha 16500 TPS HH6 19215 0.1332 1.008000
19216 ca 16500 TPS CA5 19216 -0.1548 12.010000
19217 ha 16500 TPS HA5 19217 0.1282 1.008000
19218 ca 16500 TPS CA4 19218 -0.1028 12.010000
19219 ha 16500 TPS HA4 19219 0.1262 1.008000
19220 ca 16500 TPS CA3 19220 -0.1548 12.010000
19221 ha 16500 TPS HA3 19221 0.1282 1.008000
19222 ha 16501 TPS HA2 19222 0.1332 1.008000
19223 ca 16501 TPS CA2 19223 -0.0753 12.010000
19224 ca 16501 TPS CA1 19224 -0.361 12.010000
19225 si 16501 TPS Si 19225 1.1 28.085000
19226 ca 16501 TPS CA6 19226 -0.0753 12.010000
19227 ha 16501 TPS HH6 19227 0.1332 1.008000
19228 ca 16501 TPS CA5 19228 -0.1548 12.010000
19229 ha 16501 TPS HA5 19229 0.1282 1.008000
19230 ca 16501 TPS CA4 19230 -0.1028 12.010000
19231 ha 16501 TPS HA4 19231 0.1262 1.008000
19232 ca 16501 TPS CA3 19232 -0.1548 12.010000
19233 ha 16501 TPS HA3 19233 0.1282 1.008000
19234 ha 16502 TPS HA2 19234 0.1332 1.008000
19235 ca 16502 TPS CA2 19235 -0.0753 12.010000
19236 ca 16502 TPS CA1 19236 -0.361 12.010000
19237 si 16502 TPS Si 19237 1.1 28.085000
19238 ca 16502 TPS CA6 19238 -0.0753 12.010000
19239 ha 16502 TPS HH6 19239 0.1332 1.008000
19240 ca 16502 TPS CA5 19240 -0.1548 12.010000
19241 ha 16502 TPS HA5 19241 0.1282 1.008000
19242 ca 16502 TPS CA4 19242 -0.1028 12.010000
19243 ha 16502 TPS HA4 19243 0.1262 1.008000
19244 ca 16502 TPS CA3 19244 -0.1548 12.010000
19245 ha 16502 TPS HA3 19245 0.1282 1.008000
19246 ha 16503 TPS HA2 19246 0.1332 1.008000
19247 ca 16503 TPS CA2 19247 -0.0753 12.010000
19248 ca 16503 TPS CA1 19248 -0.361 12.010000
19249 si 16503 TPS Si 19249 1.1 28.085000
19250 ca 16503 TPS CA6 19250 -0.0753 12.010000
19251 ha 16503 TPS HH6 19251 0.1332 1.008000
19252 ca 16503 TPS CA5 19252 -0.1548 12.010000
19253 ha 16503 TPS HA5 19253 0.1282 1.008000
19254 ca 16503 TPS CA4 19254 -0.1028 12.010000
19255 ha 16503 TPS HA4 19255 0.1262 1.008000
19256 ca 16503 TPS CA3 19256 -0.1548 12.010000
19257 ha 16503 TPS HA3 19257 0.1282 1.008000
19258 ha 16504 TPS HA2 19258 0.1332 1.008000
19259 ca 16504 TPS CA2 19259 -0.0753 12.010000
19260 ca 16504 TPS CA1 19260 -0.361 12.010000
19261 si 16504 TPS Si 19261 1.1 28.085000
19262 ca 16504 TPS CA6 19262 -0.0753 12.010000
19263 ha 16504 TPS HH6 19263 0.1332 1.008000
19264 ca 16504 TPS CA5 19264 -0.1548 12.010000
19265 ha 16504 TPS HA5 19265 0.1282 1.008000
19266 ca 16504 TPS CA4 19266 -0.1028 12.010000
19267 ha 16504 TPS HA4 19267 0.1262 1.008000
19268 ca 16504 TPS CA3 19268 -0.1548 12.010000
19269 ha 16504 TPS HA3 19269 0.1282 1.008000
19270 ha 16505 TPS HA2 19270 0.1332 1.008000
19271 ca 16505 TPS CA2 19271 -0.0753 12.010000
19272 ca 16505 TPS CA1 19272 -0.361 12.010000
19273 si 16505 TPS Si 19273 1.1 28.085000
19274 ca 16505 TPS CA6 19274 -0.0753 12.010000
19275 ha 16505 TPS HH6 19275 0.1332 1.008000
19276 ca 16505 TPS CA5 19276 -0.1548 12.010000
19277 ha 16505 TPS HA5 19277 0.1282 1.008000
19278 ca 16505 TPS CA4 19278 -0.1028 12.010000
19279 ha 16505 TPS HA4 19279 0.1262 1.008000
19280 ca 16505 TPS CA3 19280 -0.1548 12.010000
19281 ha 16505 TPS HA3 19281 0.1282 1.008000
19282 ha 16506 TPS HA2 19282 0.1332 1.008000
19283 ca 16506 TPS CA2 19283 -0.0753 12.010000
19284 ca 16506 TPS CA1 19284 -0.361 12.010000
19285 si 16506 TPS Si 19285 1.1 28.085000
19286 ca 16506 TPS CA6 19286 -0.0753 12.010000
19287 ha 16506 TPS HH6 19287 0.1332 1.008000
19288 ca 16506 TPS CA5 19288 -0.1548 12.010000
19289 ha 16506 TPS HA5 19289 0.1282 1.008000
19290 ca 16506 TPS CA4 19290 -0.1028 12.010000
19291 ha 16506 TPS HA4 19291 0.1262 1.008000
19292 ca 16506 TPS CA3 19292 -0.1548 12.010000
19293 ha 16506 TPS HA3 19293 0.1282 1.008000
19294 ha 16507 TPS HA2 19294 0.1332 1.008000
19295 ca 16507 TPS CA2 19295 -0.0753 12.010000
19296 ca 16507 TPS CA1 19296 -0.361 12.010000
19297 si 16507 TPS Si 19297 1.1 28.085000
19298 ca 16507 TPS CA6 19298 -0.0753 12.010000
19299 ha 16507 TPS HH6 19299 0.1332 1.008000
19300 ca 16507 TPS CA5 19300 -0.1548 12.010000
19301 ha 16507 TPS HA5 19301 0.1282 1.008000
19302 ca 16507 TPS CA4 19302 -0.1028 12.010000
19303 ha 16507 TPS HA4 19303 0.1262 1.008000
19304 ca 16507 TPS CA3 19304 -0.1548 12.010000
19305 ha 16507 TPS HA3 19305 0.1282 1.008000
19306 ha 16508 TPS HA2 19306 0.1332 1.008000
19307 ca 16508 TPS CA2 19307 -0.0753 12.010000
19308 ca 16508 TPS CA1 19308 -0.361 12.010000
19309 si 16508 TPS Si 19309 1.1 28.085000
19310 ca 16508 TPS CA6 19310 -0.0753 12.010000
19311 ha 16508 TPS HH6 19311 0.1332 1.008000
19312 ca 16508 TPS CA5 19312 -0.1548 12.010000
19313 ha 16508 TPS HA5 19313 0.1282 1.008000
19314 ca 16508 TPS CA4 19314 -0.1028 12.010000
19315 ha 16508 TPS HA4 19315 0.1262 1.008000
19316 ca 16508 TPS CA3 19316 -0.1548 12.010000
19317 ha 16508 TPS HA3 19317 0.1282 1.008000
19318 ha 16509 TPS HA2 19318 0.1332 1.008000
19319 ca 16509 TPS CA2 19319 -0.0753 12.010000
19320 ca 16509 TPS CA1 19320 -0.361 12.010000
19321 si 16509 TPS Si 19321 1.1 28.085000
19322 ca 16509 TPS CA6 19322 -0.0753 12.010000
19323 ha 16509 TPS HH6 19323 0.1332 1.008000
19324 ca 16509 TPS CA5 19324 -0.1548 12.010000
19325 ha 16509 TPS HA5 19325 0.1282 1.008000
19326 ca 16509 TPS CA4 19326 -0.1028 12.010000
19327 ha 16509 TPS HA4 19327 0.1262 1.008000
19328 ca 16509 TPS CA3 19328 -0.1548 12.010000
19329 ha 16509 TPS HA3 19329 0.1282 1.008000
19330 ha 16510 TPS HA2 19330 0.1332 1.008000
19331 ca 16510 TPS CA2 19331 -0.0753 12.010000
19332 ca 16510 TPS CA1 19332 -0.361 12.010000
19333 si 16510 TPS Si 19333 1.1 28.085000
19334 ca 16510 TPS CA6 19334 -0.0753 12.010000
19335 ha 16510 TPS HH6 19335 0.1332 1.008000
19336 ca 16510 TPS CA5 19336 -0.1548 12.010000
19337 ha 16510 TPS HA5 19337 0.1282 1.008000
19338 ca 16510 TPS CA4 19338 -0.1028 12.010000
19339 ha 16510 TPS HA4 19339 0.1262 1.008000
19340 ca 16510 TPS CA3 19340 -0.1548 12.010000
19341 ha 16510 TPS HA3 19341 0.1282 1.008000
19342 ha 16511 TPS HA2 19342 0.1332 1.008000
19343 ca 16511 TPS CA2 19343 -0.0753 12.010000
19344 ca 16511 TPS CA1 19344 -0.361 12.010000
19345 si 16511 TPS Si 19345 1.1 28.085000
19346 ca 16511 TPS CA6 19346 -0.0753 12.010000
19347 ha 16511 TPS HH6 19347 0.1332 1.008000
19348 ca 16511 TPS CA5 19348 -0.1548 12.010000
19349 ha 16511 TPS HA5 19349 0.1282 1.008000
19350 ca 16511 TPS CA4 19350 -0.1028 12.010000
19351 ha 16511 TPS HA4 19351 0.1262 1.008000
19352 ca 16511 TPS CA3 19352 -0.1548 12.010000
19353 ha 16511 TPS HA3 19353 0.1282 1.008000
19354 ha 16512 TPS HA2 19354 0.1332 1.008000
19355 ca 16512 TPS CA2 19355 -0.0753 12.010000
19356 ca 16512 TPS CA1 19356 -0.361 12.010000
19357 si 16512 TPS Si 19357 1.1 28.085000
19358 ca 16512 TPS CA6 19358 -0.0753 12.010000
19359 ha 16512 TPS HH6 19359 0.1332 1.008000
19360 ca 16512 TPS CA5 19360 -0.1548 12.010000
19361 ha 16512 TPS HA5 19361 0.1282 1.008000
19362 ca 16512 TPS CA4 19362 -0.1028 12.010000
19363 ha 16512 TPS HA4 19363 0.1262 1.008000
19364 ca 16512 TPS CA3 19364 -0.1548 12.010000
19365 ha 16512 TPS HA3 19365 0.1282 1.008000
19366 ha 16513 TPS HA2 19366 0.1332 1.008000
19367 ca 16513 TPS CA2 19367 -0.0753 12.010000
19368 ca 16513 TPS CA1 19368 -0.361 12.010000
19369 si 16513 TPS Si 19369 1.1 28.085000
19370 ca 16513 TPS CA6 19370 -0.0753 12.010000
19371 ha 16513 TPS HH6 19371 0.1332 1.008000
19372 ca 16513 TPS CA5 19372 -0.1548 12.010000
19373 ha 16513 TPS HA5 19373 0.1282 1.008000
19374 ca 16513 TPS CA4 19374 -0.1028 12.010000
19375 ha 16513 TPS HA4 19375 0.1262 1.008000
19376 ca 16513 TPS CA3 19376 -0.1548 12.010000
19377 ha 16513 TPS HA3 19377 0.1282 1.008000
19378 ha 16514 TPS HA2 19378 0.1332 1.008000
19379 ca 16514 TPS CA2 19379 -0.0753 12.010000
19380 ca 16514 TPS CA1 19380 -0.361 12.010000
19381 si 16514 TPS Si 19381 1.1 28.085000
19382 ca 16514 TPS CA6 19382 -0.0753 12.010000
19383 ha 16514 TPS HH6 19383 0.1332 1.008000
19384 ca 16514 TPS CA5 19384 -0.1548 12.010000
19385 ha 16514 TPS HA5 19385 0.1282 1.008000
19386 ca 16514 TPS CA4 19386 -0.1028 12.010000
19387 ha 16514 TPS HA4 19387 0.1262 1.008000
19388 ca 16514 TPS CA3 19388 -0.1548 12.010000
19389 ha 16514 TPS HA3 19389 0.1282 1.008000
19390 ha 16515 TPS HA2 19390 0.1332 1.008000
19391 ca 16515 TPS CA2 19391 -0.0753 12.010000
19392 ca 16515 TPS CA1 19392 -0.361 12.010000
19393 si 16515 TPS Si 19393 1.1 28.085000
19394 ca 16515 TPS CA6 19394 -0.0753 12.010000
19395 ha 16515 TPS HH6 19395 0.1332 1.008000
19396 ca 16515 TPS CA5 19396 -0.1548 12.010000
19397 ha 16515 TPS HA5 19397 0.1282 1.008000
19398 ca 16515 TPS CA4 19398 -0.1028 12.010000
19399 ha 16515 TPS HA4 19399 0.1262 1.008000
19400 ca 16515 TPS CA3 19400 -0.1548 12.010000
19401 ha 16515 TPS HA3 19401 0.1282 1.008000
19402 ha 16516 TPS HA2 19402 0.1332 1.008000
19403 ca 16516 TPS CA2 19403 -0.0753 12.010000
19404 ca 16516 TPS CA1 19404 -0.361 12.010000
19405 si 16516 TPS Si 19405 1.1 28.085000
19406 ca 16516 TPS CA6 19406 -0.0753 12.010000
19407 ha 16516 TPS HH6 19407 0.1332 1.008000
19408 ca 16516 TPS CA5 19408 -0.1548 12.010000
19409 ha 16516 TPS HA5 19409 0.1282 1.008000
19410 ca 16516 TPS CA4 19410 -0.1028 12.010000
19411 ha 16516 TPS HA4 19411 0.1262 1.008000
19412 ca 16516 TPS CA3 19412 -0.1548 12.010000
19413 ha 16516 TPS HA3 19413 0.1282 1.008000
19414 ha 16517 TPS HA2 19414 0.1332 1.008000
19415 ca 16517 TPS CA2 19415 -0.0753 12.010000
19416 ca 16517 TPS CA1 19416 -0.361 12.010000
19417 si 16517 TPS Si 19417 1.1 28.085000
19418 ca 16517 TPS CA6 19418 -0.0753 12.010000
19419 ha 16517 TPS HH6 19419 0.1332 1.008000
19420 ca 16517 TPS CA5 19420 -0.1548 12.010000
19421 ha 16517 TPS HA5 19421 0.1282 1.008000
19422 ca 16517 TPS CA4 19422 -0.1028 12.010000
19423 ha 16517 TPS HA4 19423 0.1262 1.008000
19424 ca 16517 TPS CA3 19424 -0.1548 12.010000
19425 ha 16517 TPS HA3 19425 0.1282 1.008000
19426 ha 16518 TPS HA2 19426 0.1332 1.008000
19427 ca 16518 TPS CA2 19427 -0.0753 12.010000
19428 ca 16518 TPS CA1 19428 -0.361 12.010000
19429 si 16518 TPS Si 19429 1.1 28.085000
19430 ca 16518 TPS CA6 19430 -0.0753 12.010000
19431 ha 16518 TPS HH6 19431 0.1332 1.008000
19432 ca 16518 TPS CA5 19432 -0.1548 12.010000
19433 ha 16518 TPS HA5 19433 0.1282 1.008000
19434 ca 16518 TPS CA4 19434 -0.1028 12.010000
19435 ha 16518 TPS HA4 19435 0.1262 1.008000
19436 ca 16518 TPS CA3 19436 -0.1548 12.010000
19437 ha 16518 TPS HA3 19437 0.1282 1.008000
19438 ha 16519 TPS HA2 19438 0.1332 1.008000
19439 ca 16519 TPS CA2 19439 -0.0753 12.010000
19440 ca 16519 TPS CA1 19440 -0.361 12.010000
19441 si 16519 TPS Si 19441 1.1 28.085000
19442 ca 16519 TPS CA6 19442 -0.0753 12.010000
19443 ha 16519 TPS HH6 19443 0.1332 1.008000
19444 ca 16519 TPS CA5 19444 -0.1548 12.010000
19445 ha 16519 TPS HA5 19445 0.1282 1.008000
19446 ca 16519 TPS CA4 19446 -0.1028 12.010000
19447 ha 16519 TPS HA4 19447 0.1262 1.008000
19448 ca 16519 TPS CA3 19448 -0.1548 12.010000
19449 ha 16519 TPS HA3 19449 0.1282 1.008000
19450 ha 16520 TPS HA2 19450 0.1332 1.008000
19451 ca 16520 TPS CA2 19451 -0.0753 12.010000
19452 ca 16520 TPS CA1 19452 -0.361 12.010000
19453 si 16520 TPS Si 19453 1.1 28.085000
19454 ca 16520 TPS CA6 19454 -0.0753 12.010000
19455 ha 16520 TPS HH6 19455 0.1332 1.008000
19456 ca 16520 TPS CA5 19456 -0.1548 12.010000
19457 ha 16520 TPS HA5 19457 0.1282 1.008000
19458 ca 16520 TPS CA4 19458 -0.1028 12.010000
19459 ha 16520 TPS HA4 19459 0.1262 1.008000
19460 ca 16520 TPS CA3 19460 -0.1548 12.010000
19461 ha 16520 TPS HA3 19461 0.1282 1.008000
19462 ha 16521 TPS HA2 19462 0.1332 1.008000
19463 ca 16521 TPS CA2 19463 -0.0753 12.010000
19464 ca 16521 TPS CA1 19464 -0.361 12.010000
19465 si 16521 TPS Si 19465 1.1 28.085000
19466 ca 16521 TPS CA6 19466 -0.0753 12.010000
19467 ha 16521 TPS HH6 19467 0.1332 1.008000
19468 ca 16521 TPS CA5 19468 -0.1548 12.010000
19469 ha 16521 TPS HA5 19469 0.1282 1.008000
19470 ca 16521 TPS CA4 19470 -0.1028 12.010000
19471 ha 16521 TPS HA4 19471 0.1262 1.008000
19472 ca 16521 TPS CA3 19472 -0.1548 12.010000
19473 ha 16521 TPS HA3 19473 0.1282 1.008000
19474 ha 16522 TPS HA2 19474 0.1332 1.008000
19475 ca 16522 TPS CA2 19475 -0.0753 12.010000
19476 ca 16522 TPS CA1 19476 -0.361 12.010000
19477 si 16522 TPS Si 19477 1.1 28.085000
19478 ca 16522 TPS CA6 19478 -0.0753 12.010000
19479 ha 16522 TPS HH6 19479 0.1332 1.008000
19480 ca 16522 TPS CA5 19480 -0.1548 12.010000
19481 ha 16522 TPS HA5 19481 0.1282 1.008000
19482 ca 16522 TPS CA4 19482 -0.1028 12.010000
19483 ha 16522 TPS HA4 19483 0.1262 1.008000
19484 ca 16522 TPS CA3 19484 -0.1548 12.010000
19485 ha 16522 TPS HA3 19485 0.1282 1.008000
19486 ha 16523 TPS HA2 19486 0.1332 1.008000
19487 ca 16523 TPS CA2 19487 -0.0753 12.010000
19488 ca 16523 TPS CA1 19488 -0.361 12.010000
19489 si 16523 TPS Si 19489 1.1 28.085000
19490 ca 16523 TPS CA6 19490 -0.0753 12.010000
19491 ha 16523 TPS HH6 19491 0.1332 1.008000
19492 ca 16523 TPS CA5 19492 -0.1548 12.010000
19493 ha 16523 TPS HA5 19493 0.1282 1.008000
19494 ca 16523 TPS CA4 19494 -0.1028 12.010000
19495 ha 16523 TPS HA4 19495 0.1262 1.008000
19496 ca 16523 TPS CA3 19496 -0.1548 12.010000
19497 ha 16523 TPS HA3 19497 0.1282 1.008000
19498 ha 16524 TPS HA2 19498 0.1332 1.008000
19499 ca 16524 TPS CA2 19499 -0.0753 12.010000
19500 ca 16524 TPS CA1 19500 -0.361 12.010000
19501 si 16524 TPS Si 19501 1.1 28.085000
19502 ca 16524 TPS CA6 19502 -0.0753 12.010000
19503 ha 16524 TPS HH6 19503 0.1332 1.008000
19504 ca 16524 TPS CA5 19504 -0.1548 12.010000
19505 ha 16524 TPS HA5 19505 0.1282 1.008000
19506 ca 16524 TPS CA4 19506 -0.1028 12.010000
19507 ha 16524 TPS HA4 19507 0.1262 1.008000
19508 ca 16524 TPS CA3 19508 -0.1548 12.010000
19509 ha 16524 TPS HA3 19509 0.1282 1.008000
19510 ha 16525 TPS HA2 19510 0.1332 1.008000
19511 ca 16525 TPS CA2 19511 -0.0753 12.010000
19512 ca 16525 TPS CA1 19512 -0.361 12.010000
19513 si 16525 TPS Si 19513 1.1 28.085000
19514 ca 16525 TPS CA6 19514 -0.0753 12.010000
19515 ha 16525 TPS HH6 19515 0.1332 1.008000
19516 ca 16525 TPS CA5 19516 -0.1548 12.010000
19517 ha 16525 TPS HA5 19517 0.1282 1.008000
19518 ca 16525 TPS CA4 19518 -0.1028 12.010000
19519 ha 16525 TPS HA4 19519 0.1262 1.008000
19520 ca 16525 TPS CA3 19520 -0.1548 12.010000
19521 ha 16525 TPS HA3 19521 0.1282 1.008000
19522 ha 16526 TPS HA2 19522 0.1332 1.008000
19523 ca 16526 TPS CA2 19523 -0.0753 12.010000
19524 ca 16526 TPS CA1 19524 -0.361 12.010000
19525 si 16526 TPS Si 19525 1.1 28.085000
19526 ca 16526 TPS CA6 19526 -0.0753 12.010000
19527 ha 16526 TPS HH6 19527 0.1332 1.008000
19528 ca 16526 TPS CA5 19528 -0.1548 12.010000
19529 ha 16526 TPS HA5 19529 0.1282 1.008000
19530 ca 16526 TPS CA4 19530 -0.1028 12.010000
19531 ha 16526 TPS HA4 19531 0.1262 1.008000
19532 ca 16526 TPS CA3 19532 -0.1548 12.010000
19533 ha 16526 TPS HA3 19533 0.1282 1.008000
19534 ha 16527 TPS HA2 19534 0.1332 1.008000
19535 ca 16527 TPS CA2 19535 -0.0753 12.010000
19536 ca 16527 TPS CA1 19536 -0.361 12.010000
19537 si 16527 TPS Si 19537 1.1 28.085000
19538 ca 16527 TPS CA6 19538 -0.0753 12.010000
19539 ha 16527 TPS HH6 19539 0.1332 1.008000
19540 ca 16527 TPS CA5 19540 -0.1548 12.010000
19541 ha 16527 TPS HA5 19541 0.1282 1.008000
19542 ca 16527 TPS CA4 19542 -0.1028 12.010000
19543 ha 16527 TPS HA4 19543 0.1262 1.008000
19544 ca 16527 TPS CA3 19544 -0.1548 12.010000
19545 ha 16527 TPS HA3 19545 0.1282 1.008000
19546 ha 16528 TPS HA2 19546 0.1332 1.008000
19547 ca 16528 TPS CA2 19547 -0.0753 12.010000
19548 ca 16528 TPS CA1 19548 -0.361 12.010000
19549 si 16528 TPS Si 19549 1.1 28.085000
19550 ca 16528 TPS CA6 19550 -0.0753 12.010000
19551 ha 16528 TPS HH6 19551 0.1332 1.008000
19552 ca 16528 TPS CA5 19552 -0.1548 12.010000
19553 ha 16528 TPS HA5 19553 0.1282 1.008000
19554 ca 16528 TPS CA4 19554 -0.1028 12.010000
19555 ha 16528 TPS HA4 19555 0.1262 1.008000
19556 ca 16528 TPS CA3 19556 -0.1548 12.010000
19557 ha 16528 TPS HA3 19557 0.1282 1.008000
19558 ha 16529 TPS HA2 19558 0.1332 1.008000
19559 ca 16529 TPS CA2 19559 -0.0753 12.010000
19560 ca 16529 TPS CA1 19560 -0.361 12.010000
19561 si 16529 TPS Si 19561 1.1 28.085000
19562 ca 16529 TPS CA6 19562 -0.0753 12.010000
19563 ha 16529 TPS HH6 19563 0.1332 1.008000
19564 ca 16529 TPS CA5 19564 -0.1548 12.010000
19565 ha 16529 TPS HA5 19565 0.1282 1.008000
19566 ca 16529 TPS CA4 19566 -0.1028 12.010000
19567 ha 16529 TPS HA4 19567 0.1262 1.008000
19568 ca 16529 TPS CA3 19568 -0.1548 12.010000
19569 ha 16529 TPS HA3 19569 0.1282 1.008000
19570 ha 16530 TPS HA2 19570 0.1332 1.008000
19571 ca 16530 TPS CA2 19571 -0.0753 12.010000
19572 ca 16530 TPS CA1 19572 -0.361 12.010000
19573 si 16530 TPS Si 19573 1.1 28.085000
19574 ca 16530 TPS CA6 19574 -0.0753 12.010000
19575 ha 16530 TPS HH6 19575 0.1332 1.008000
19576 ca 16530 TPS CA5 19576 -0.1548 12.010000
19577 ha 16530 TPS HA5 19577 0.1282 1.008000
19578 ca 16530 TPS CA4 19578 -0.1028 12.010000
19579 ha 16530 TPS HA4 19579 0.1262 1.008000
19580 ca 16530 TPS CA3 19580 -0.1548 12.010000
19581 ha 16530 TPS HA3 19581 0.1282 1.008000
19582 ha 16531 TPS HA2 19582 0.1332 1.008000
19583 ca 16531 TPS CA2 19583 -0.0753 12.010000
19584 ca 16531 TPS CA1 19584 -0.361 12.010000
19585 si 16531 TPS Si 19585 1.1 28.085000
19586 ca 16531 TPS CA6 19586 -0.0753 12.010000
19587 ha 16531 TPS HH6 19587 0.1332 1.008000
19588 ca 16531 TPS CA5 19588 -0.1548 12.010000
19589 ha 16531 TPS HA5 19589 0.1282 1.008000
19590 ca 16531 TPS CA4 19590 -0.1028 12.010000
19591 ha 16531 TPS HA4 19591 0.1262 1.008000
19592 ca 16531 TPS CA3 19592 -0.1548 12.010000
19593 ha 16531 TPS HA3 19593 0.1282 1.008000
19594 ha 16532 TPS HA2 19594 0.1332 1.008000
19595 ca 16532 TPS CA2 19595 -0.0753 12.010000
19596 ca 16532 TPS CA1 19596 -0.361 12.010000
19597 si 16532 TPS Si 19597 1.1 28.085000
19598 ca 16532 TPS CA6 19598 -0.0753 12.010000
19599 ha 16532 TPS HH6 19599 0.1332 1.008000
19600 ca 16532 TPS CA5 19600 -0.1548 12.010000
19601 ha 16532 TPS HA5 19601 0.1282 1.008000
19602 ca 16532 TPS CA4 19602 -0.1028 12.010000
19603 ha 16532 TPS HA4 19603 0.1262 1.008000
19604 ca 16532 TPS CA3 19604 -0.1548 12.010000
19605 ha 16532 TPS HA3 19605 0.1282 1.008000
19606 ha 16533 TPS HA2 19606 0.1332 1.008000
19607 ca 16533 TPS CA2 19607 -0.0753 12.010000
19608 ca 16533 TPS CA1 19608 -0.361 12.010000
19609 si 16533 TPS Si 19609 1.1 28.085000
19610 ca 16533 TPS CA6 19610 -0.0753 12.010000
19611 ha 16533 TPS HH6 19611 0.1332 1.008000
19612 ca 16533 TPS CA5 19612 -0.1548 12.010000
19613 ha 16533 TPS HA5 19613 0.1282 1.008000
19614 ca 16533 TPS CA4 19614 -0.1028 12.010000
19615 ha 16533 TPS HA4 19615 0.1262 1.008000
19616 ca 16533 TPS CA3 19616 -0.1548 12.010000
19617 ha 16533 TPS HA3 19617 0.1282 1.008000
19618 ha 16534 TPS HA2 19618 0.1332 1.008000
19619 ca 16534 TPS CA2 19619 -0.0753 12.010000
19620 ca 16534 TPS CA1 19620 -0.361 12.010000
19621 si 16534 TPS Si 19621 1.1 28.085000
19622 ca 16534 TPS CA6 19622 -0.0753 12.010000
19623 ha 16534 TPS HH6 19623 0.1332 1.008000
19624 ca 16534 TPS CA5 19624 -0.1548 12.010000
19625 ha 16534 TPS HA5 19625 0.1282 1.008000
19626 ca 16534 TPS CA4 19626 -0.1028 12.010000
19627 ha 16534 TPS HA4 19627 0.1262 1.008000
19628 ca 16534 TPS CA3 19628 -0.1548 12.010000
19629 ha 16534 TPS HA3 19629 0.1282 1.008000
19630 ha 16535 TPS HA2 19630 0.1332 1.008000
19631 ca 16535 TPS CA2 19631 -0.0753 12.010000
19632 ca 16535 TPS CA1 19632 -0.361 12.010000
19633 si 16535 TPS Si 19633 1.1 28.085000
19634 ca 16535 TPS CA6 19634 -0.0753 12.010000
19635 ha 16535 TPS HH6 19635 0.1332 1.008000
19636 ca 16535 TPS CA5 19636 -0.1548 12.010000
19637 ha 16535 TPS HA5 19637 0.1282 1.008000
19638 ca 16535 TPS CA4 19638 -0.1028 12.010000
19639 ha 16535 TPS HA4 19639 0.1262 1.008000
19640 ca 16535 TPS CA3 19640 -0.1548 12.010000
19641 ha 16535 TPS HA3 19641 0.1282 1.008000
19642 ha 16536 TPS HA2 19642 0.1332 1.008000
19643 ca 16536 TPS CA2 19643 -0.0753 12.010000
19644 ca 16536 TPS CA1 19644 -0.361 12.010000
19645 si 16536 TPS Si 19645 1.1 28.085000
19646 ca 16536 TPS CA6 19646 -0.0753 12.010000
19647 ha 16536 TPS HH6 19647 0.1332 1.008000
19648 ca 16536 TPS CA5 19648 -0.1548 12.010000
19649 ha 16536 TPS HA5 19649 0.1282 1.008000
19650 ca 16536 TPS CA4 19650 -0.1028 12.010000
19651 ha 16536 TPS HA4 19651 0.1262 1.008000
19652 ca 16536 TPS CA3 19652 -0.1548 12.010000
19653 ha 16536 TPS HA3 19653 0.1282 1.008000
19654 ha 16537 TPS HA2 19654 0.1332 1.008000
19655 ca 16537 TPS CA2 19655 -0.0753 12.010000
19656 ca 16537 TPS CA1 19656 -0.361 12.010000
19657 si 16537 TPS Si 19657 1.1 28.085000
19658 ca 16537 TPS CA6 19658 -0.0753 12.010000
19659 ha 16537 TPS HH6 19659 0.1332 1.008000
19660 ca 16537 TPS CA5 19660 -0.1548 12.010000
19661 ha 16537 TPS HA5 19661 0.1282 1.008000
19662 ca 16537 TPS CA4 19662 -0.1028 12.010000
19663 ha 16537 TPS HA4 19663 0.1262 1.008000
19664 ca 16537 TPS CA3 19664 -0.1548 12.010000
19665 ha 16537 TPS HA3 19665 0.1282 1.008000
19666 ha 16538 TPS HA2 19666 0.1332 1.008000
19667 ca 16538 TPS CA2 19667 -0.0753 12.010000
19668 ca 16538 TPS CA1 19668 -0.361 12.010000
19669 si 16538 TPS Si 19669 1.1 28.085000
19670 ca 16538 TPS CA6 19670 -0.0753 12.010000
19671 ha 16538 TPS HH6 19671 0.1332 1.008000
19672 ca 16538 TPS CA5 19672 -0.1548 12.010000
19673 ha 16538 TPS HA5 19673 0.1282 1.008000
19674 ca 16538 TPS CA4 19674 -0.1028 12.010000
19675 ha 16538 TPS HA4 19675 0.1262 1.008000
19676 ca 16538 TPS CA3 19676 -0.1548 12.010000
19677 ha 16538 TPS HA3 19677 0.1282 1.008000
19678 ha 16539 TPS HA2 19678 0.1332 1.008000
19679 ca 16539 TPS CA2 19679 -0.0753 12.010000
19680 ca 16539 TPS CA1 19680 -0.361 12.010000
19681 si 16539 TPS Si 19681 1.1 28.085000
19682 ca 16539 TPS CA6 19682 -0.0753 12.010000
19683 ha 16539 TPS HH6 19683 0.1332 1.008000
19684 ca 16539 TPS CA5 19684 -0.1548 12.010000
19685 ha 16539 TPS HA5 19685 0.1282 1.008000
19686 ca 16539 TPS CA4 19686 -0.1028 12.010000
19687 ha 16539 TPS HA4 19687 0.1262 1.008000
19688 ca 16539 TPS CA3 19688 -0.1548 12.010000
19689 ha 16539 TPS HA3 19689 0.1282 1.008000
19690 ha 16540 TPS HA2 19690 0.1332 1.008000
19691 ca 16540 TPS CA2 19691 -0.0753 12.010000
19692 ca 16540 TPS CA1 19692 -0.361 12.010000
19693 si 16540 TPS Si 19693 1.1 28.085000
19694 ca 16540 TPS CA6 19694 -0.0753 12.010000
19695 ha 16540 TPS HH6 19695 0.1332 1.008000
19696 ca 16540 TPS CA5 19696 -0.1548 12.010000
19697 ha 16540 TPS HA5 19697 0.1282 1.008000
19698 ca 16540 TPS CA4 19698 -0.1028 12.010000
19699 ha 16540 TPS HA4 19699 0.1262 1.008000
19700 ca 16540 TPS CA3 19700 -0.1548 12.010000
19701 ha 16540 TPS HA3 19701 0.1282 1.008000
19702 ha 16541 TPS HA2 19702 0.1332 1.008000
19703 ca 16541 TPS CA2 19703 -0.0753 12.010000
19704 ca 16541 TPS CA1 19704 -0.361 12.010000
19705 si 16541 TPS Si 19705 1.1 28.085000
19706 ca 16541 TPS CA6 19706 -0.0753 12.010000
19707 ha 16541 TPS HH6 19707 0.1332 1.008000
19708 ca 16541 TPS CA5 19708 -0.1548 12.010000
19709 ha 16541 TPS HA5 19709 0.1282 1.008000
19710 ca 16541 TPS CA4 19710 -0.1028 12.010000
19711 ha 16541 TPS HA4 19711 0.1262 1.008000
19712 ca 16541 TPS CA3 19712 -0.1548 12.010000
19713 ha 16541 TPS HA3 19713 0.1282 1.008000
19714 ha 16542 TPS HA2 19714 0.1332 1.008000
19715 ca 16542 TPS CA2 19715 -0.0753 12.010000
19716 ca 16542 TPS CA1 19716 -0.361 12.010000
19717 si 16542 TPS Si 19717 1.1 28.085000
19718 ca 16542 TPS CA6 19718 -0.0753 12.010000
19719 ha 16542 TPS HH6 19719 0.1332 1.008000
19720 ca 16542 TPS CA5 19720 -0.1548 12.010000
19721 ha 16542 TPS HA5 19721 0.1282 1.008000
19722 ca 16542 TPS CA4 19722 -0.1028 12.010000
19723 ha 16542 TPS HA4 19723 0.1262 1.008000
19724 ca 16542 TPS CA3 19724 -0.1548 12.010000
19725 ha 16542 TPS HA3 19725 0.1282 1.008000
19726 ha 16543 TPS HA2 19726 0.1332 1.008000
19727 ca 16543 TPS CA2 19727 -0.0753 12.010000
19728 ca 16543 TPS CA1 19728 -0.361 12.010000
19729 si 16543 TPS Si 19729 1.1 28.085000
19730 ca 16543 TPS CA6 19730 -0.0753 12.010000
19731 ha 16543 TPS HH6 19731 0.1332 1.008000
19732 ca 16543 TPS CA5 19732 -0.1548 12.010000
19733 ha 16543 TPS HA5 19733 0.1282 1.008000
19734 ca 16543 TPS CA4 19734 -0.1028 12.010000
19735 ha 16543 TPS HA4 19735 0.1262 1.008000
19736 ca 16543 TPS CA3 19736 -0.1548 12.010000
19737 ha 16543 TPS HA3 19737 0.1282 1.008000
19738 ha 16544 TPS HA2 19738 0.1332 1.008000
19739 ca 16544 TPS CA2 19739 -0.0753 12.010000
19740 ca 16544 TPS CA1 19740 -0.361 12.010000
19741 si 16544 TPS Si 19741 1.1 28.085000
19742 ca 16544 TPS CA6 19742 -0.0753 12.010000
19743 ha 16544 TPS HH6 19743 0.1332 1.008000
19744 ca 16544 TPS CA5 19744 -0.1548 12.010000
19745 ha 16544 TPS HA5 19745 0.1282 1.008000
19746 ca 16544 TPS CA4 19746 -0.1028 12.010000
19747 ha 16544 TPS HA4 19747 0.1262 1.008000
19748 ca 16544 TPS CA3 19748 -0.1548 12.010000
19749 ha 16544 TPS HA3 19749 0.1282 1.008000
19750 ha 16545 TPS HA2 19750 0.1332 1.008000
19751 ca 16545 TPS CA2 19751 -0.0753 12.010000
19752 ca 16545 TPS CA1 19752 -0.361 12.010000
19753 si 16545 TPS Si 19753 1.1 28.085000
19754 ca 16545 TPS CA6 19754 -0.0753 12.010000
19755 ha 16545 TPS HH6 19755 0.1332 1.008000
19756 ca 16545 TPS CA5 19756 -0.1548 12.010000
19757 ha 16545 TPS HA5 19757 0.1282 1.008000
19758 ca 16545 TPS CA4 19758 -0.1028 12.010000
19759 ha 16545 TPS HA4 19759 0.1262 1.008000
19760 ca 16545 TPS CA3 19760 -0.1548 12.010000
19761 ha 16545 TPS HA3 19761 0.1282 1.008000
19762 ha 16546 TPS HA2 19762 0.1332 1.008000
19763 ca 16546 TPS CA2 19763 -0.0753 12.010000
19764 ca 16546 TPS CA1 19764 -0.361 12.010000
19765 si 16546 TPS Si 19765 1.1 28.085000
19766 ca 16546 TPS CA6 19766 -0.0753 12.010000
19767 ha 16546 TPS HH6 19767 0.1332 1.008000
19768 ca 16546 TPS CA5 19768 -0.1548 12.010000
19769 ha 16546 TPS HA5 19769 0.1282 1.008000
19770 ca 16546 TPS CA4 19770 -0.1028 12.010000
19771 ha 16546 TPS HA4 19771 0.1262 1.008000
19772 ca 16546 TPS CA3 19772 -0.1548 12.010000
19773 ha 16546 TPS HA3 19773 0.1282 1.008000
19774 ha 16547 TPS HA2 19774 0.1332 1.008000
19775 ca 16547 TPS CA2 19775 -0.0753 12.010000
19776 ca 16547 TPS CA1 19776 -0.361 12.010000
19777 si 16547 TPS Si 19777 1.1 28.085000
19778 ca 16547 TPS CA6 19778 -0.0753 12.010000
19779 ha 16547 TPS HH6 19779 0.1332 1.008000
19780 ca 16547 TPS CA5 19780 -0.1548 12.010000
19781 ha 16547 TPS HA5 19781 0.1282 1.008000
19782 ca 16547 TPS CA4 19782 -0.1028 12.010000
19783 ha 16547 TPS HA4 19783 0.1262 1.008000
19784 ca 16547 TPS CA3 19784 -0.1548 12.010000
19785 ha 16547 TPS HA3 19785 0.1282 1.008000
19786 ha 16548 TPS HA2 19786 0.1332 1.008000
19787 ca 16548 TPS CA2 19787 -0.0753 12.010000
19788 ca 16548 TPS CA1 19788 -0.361 12.010000
19789 si 16548 TPS Si 19789 1.1 28.085000
19790 ca 16548 TPS CA6 19790 -0.0753 12.010000
19791 ha 16548 TPS HH6 19791 0.1332 1.008000
19792 ca 16548 TPS CA5 19792 -0.1548 12.010000
19793 ha 16548 TPS HA5 19793 0.1282 1.008000
19794 ca 16548 TPS CA4 19794 -0.1028 12.010000
19795 ha 16548 TPS HA4 19795 0.1262 1.008000
19796 ca 16548 TPS CA3 19796 -0.1548 12.010000
19797 ha 16548 TPS HA3 19797 0.1282 1.008000
19798 ha 16549 TPS HA2 19798 0.1332 1.008000
19799 ca 16549 TPS CA2 19799 -0.0753 12.010000
19800 ca 16549 TPS CA1 19800 -0.361 12.010000
19801 si 16549 TPS Si 19801 1.1 28.085000
19802 ca 16549 TPS CA6 19802 -0.0753 12.010000
19803 ha 16549 TPS HH6 19803 0.1332 1.008000
19804 ca 16549 TPS CA5 19804 -0.1548 12.010000
19805 ha 16549 TPS HA5 19805 0.1282 1.008000
19806 ca 16549 TPS CA4 19806 -0.1028 12.010000
19807 ha 16549 TPS HA4 19807 0.1262 1.008000
19808 ca 16549 TPS CA3 19808 -0.1548 12.010000
19809 ha 16549 TPS HA3 19809 0.1282 1.008000
19810 ha 16550 TPS HA2 19810 0.1332 1.008000
19811 ca 16550 TPS CA2 19811 -0.0753 12.010000
19812 ca 16550 TPS CA1 19812 -0.361 12.010000
19813 si 16550 TPS Si 19813 1.1 28.085000
19814 ca 16550 TPS CA6 19814 -0.0753 12.010000
19815 ha 16550 TPS HH6 19815 0.1332 1.008000
19816 ca 16550 TPS CA5 19816 -0.1548 12.010000
19817 ha 16550 TPS HA5 19817 0.1282 1.008000
19818 ca 16550 TPS CA4 19818 -0.1028 12.010000
19819 ha 16550 TPS HA4 19819 0.1262 1.008000
19820 ca 16550 TPS CA3 19820 -0.1548 12.010000
19821 ha 16550 TPS HA3 19821 0.1282 1.008000
19822 ha 16551 TPS HA2 19822 0.1332 1.008000
19823 ca 16551 TPS CA2 19823 -0.0753 12.010000
19824 ca 16551 TPS CA1 19824 -0.361 12.010000
19825 si 16551 TPS Si 19825 1.1 28.085000
19826 ca 16551 TPS CA6 19826 -0.0753 12.010000
19827 ha 16551 TPS HH6 19827 0.1332 1.008000
19828 ca 16551 TPS CA5 19828 -0.1548 12.010000
19829 ha 16551 TPS HA5 19829 0.1282 1.008000
19830 ca 16551 TPS CA4 19830 -0.1028 12.010000
19831 ha 16551 TPS HA4 19831 0.1262 1.008000
19832 ca 16551 TPS CA3 19832 -0.1548 12.010000
19833 ha 16551 TPS HA3 19833 0.1282 1.008000
19834 ha 16552 TPS HA2 19834 0.1332 1.008000
19835 ca 16552 TPS CA2 19835 -0.0753 12.010000
19836 ca 16552 TPS CA1 19836 -0.361 12.010000
19837 si 16552 TPS Si 19837 1.1 28.085000
19838 ca 16552 TPS CA6 19838 -0.0753 12.010000
19839 ha 16552 TPS HH6 19839 0.1332 1.008000
19840 ca 16552 TPS CA5 19840 -0.1548 12.010000
19841 ha 16552 TPS HA5 19841 0.1282 1.008000
19842 ca 16552 TPS CA4 19842 -0.1028 12.010000
19843 ha 16552 TPS HA4 19843 0.1262 1.008000
19844 ca 16552 TPS CA3 19844 -0.1548 12.010000
19845 ha 16552 TPS HA3 19845 0.1282 1.008000
19846 ha 16553 TPS HA2 19846 0.1332 1.008000
19847 ca 16553 TPS CA2 19847 -0.0753 12.010000
19848 ca 16553 TPS CA1 19848 -0.361 12.010000
19849 si 16553 TPS Si 19849 1.1 28.085000
19850 ca 16553 TPS CA6 19850 -0.0753 12.010000
19851 ha 16553 TPS HH6 19851 0.1332 1.008000
19852 ca 16553 TPS CA5 19852 -0.1548 12.010000
19853 ha 16553 TPS HA5 19853 0.1282 1.008000
19854 ca 16553 TPS CA4 19854 -0.1028 12.010000
19855 ha 16553 TPS HA4 19855 0.1262 1.008000
19856 ca 16553 TPS CA3 19856 -0.1548 12.010000
19857 ha 16553 TPS HA3 19857 0.1282 1.008000
19858 ha 16554 TPS HA2 19858 0.1332 1.008000
19859 ca 16554 TPS CA2 19859 -0.0753 12.010000
19860 ca 16554 TPS CA1 19860 -0.361 12.010000
19861 si 16554 TPS Si 19861 1.1 28.085000
19862 ca 16554 TPS CA6 19862 -0.0753 12.010000
19863 ha 16554 TPS HH6 19863 0.1332 1.008000
19864 ca 16554 TPS CA5 19864 -0.1548 12.010000
19865 ha 16554 TPS HA5 19865 0.1282 1.008000
19866 ca 16554 TPS CA4 19866 -0.1028 12.010000
19867 ha 16554 TPS HA4 19867 0.1262 1.008000
19868 ca 16554 TPS CA3 19868 -0.1548 12.010000
19869 ha 16554 TPS HA3 19869 0.1282 1.008000
19870 ha 16555 TPS HA2 19870 0.1332 1.008000
19871 ca 16555 TPS CA2 19871 -0.0753 12.010000
19872 ca 16555 TPS CA1 19872 -0.361 12.010000
19873 si 16555 TPS Si 19873 1.1 28.085000
19874 ca 16555 TPS CA6 19874 -0.0753 12.010000
19875 ha 16555 TPS HH6 19875 0.1332 1.008000
19876 ca 16555 TPS CA5 19876 -0.1548 12.010000
19877 ha 16555 TPS HA5 19877 0.1282 1.008000
19878 ca 16555 TPS CA4 19878 -0.1028 12.010000
19879 ha 16555 TPS HA4 19879 0.1262 1.008000
19880 ca 16555 TPS CA3 19880 -0.1548 12.010000
19881 ha 16555 TPS HA3 19881 0.1282 1.008000
19882 ha 16556 TPS HA2 19882 0.1332 1.008000
19883 ca 16556 TPS CA2 19883 -0.0753 12.010000
19884 ca 16556 TPS CA1 19884 -0.361 12.010000
19885 si 16556 TPS Si 19885 1.1 28.085000
19886 ca 16556 TPS CA6 19886 -0.0753 12.010000
19887 ha 16556 TPS HH6 19887 0.1332 1.008000
19888 ca 16556 TPS CA5 19888 -0.1548 12.010000
19889 ha 16556 TPS HA5 19889 0.1282 1.008000
19890 ca 16556 TPS CA4 19890 -0.1028 12.010000
19891 ha 16556 TPS HA4 19891 0.1262 1.008000
19892 ca 16556 TPS CA3 19892 -0.1548 12.010000
19893 ha 16556 TPS HA3 19893 0.1282 1.008000
19894 ha 16557 TPS HA2 19894 0.1332 1.008000
19895 ca 16557 TPS CA2 19895 -0.0753 12.010000
19896 ca 16557 TPS CA1 19896 -0.361 12.010000
19897 si 16557 TPS Si 19897 1.1 28.085000
19898 ca 16557 TPS CA6 19898 -0.0753 12.010000
19899 ha 16557 TPS HH6 19899 0.1332 1.008000
19900 ca 16557 TPS CA5 19900 -0.1548 12.010000
19901 ha 16557 TPS HA5 19901 0.1282 1.008000
19902 ca 16557 TPS CA4 19902 -0.1028 12.010000
19903 ha 16557 TPS HA4 19903 0.1262 1.008000
19904 ca 16557 TPS CA3 19904 -0.1548 12.010000
19905 ha 16557 TPS HA3 19905 0.1282 1.008000
19906 ha 16558 TPS HA2 19906 0.1332 1.008000
19907 ca 16558 TPS CA2 19907 -0.0753 12.010000
19908 ca 16558 TPS CA1 19908 -0.361 12.010000
19909 si 16558 TPS Si 19909 1.1 28.085000
19910 ca 16558 TPS CA6 19910 -0.0753 12.010000
19911 ha 16558 TPS HH6 19911 0.1332 1.008000
19912 ca 16558 TPS CA5 19912 -0.1548 12.010000
19913 ha 16558 TPS HA5 19913 0.1282 1.008000
19914 ca 16558 TPS CA4 19914 -0.1028 12.010000
19915 ha 16558 TPS HA4 19915 0.1262 1.008000
19916 ca 16558 TPS CA3 19916 -0.1548 12.010000
19917 ha 16558 TPS HA3 19917 0.1282 1.008000
19918 ha 16559 TPS HA2 19918 0.1332 1.008000
19919 ca 16559 TPS CA2 19919 -0.0753 12.010000
19920 ca 16559 TPS CA1 19920 -0.361 12.010000
19921 si 16559 TPS Si 19921 1.1 28.085000
19922 ca 16559 TPS CA6 19922 -0.0753 12.010000
19923 ha 16559 TPS HH6 19923 0.1332 1.008000
19924 ca 16559 TPS CA5 19924 -0.1548 12.010000
19925 ha 16559 TPS HA5 19925 0.1282 1.008000
19926 ca 16559 TPS CA4 19926 -0.1028 12.010000
19927 ha 16559 TPS HA4 19927 0.1262 1.008000
19928 ca 16559 TPS CA3 19928 -0.1548 12.010000
19929 ha 16559 TPS HA3 19929 0.1282 1.008000
19930 ha 16560 TPS HA2 19930 0.1332 1.008000
19931 ca 16560 TPS CA2 19931 -0.0753 12.010000
19932 ca 16560 TPS CA1 19932 -0.361 12.010000
19933 si 16560 TPS Si 19933 1.1 28.085000
19934 ca 16560 TPS CA6 19934 -0.0753 12.010000
19935 ha 16560 TPS HH6 19935 0.1332 1.008000
19936 ca 16560 TPS CA5 19936 -0.1548 12.010000
19937 ha 16560 TPS HA5 19937 0.1282 1.008000
19938 ca 16560 TPS CA4 19938 -0.1028 12.010000
19939 ha 16560 TPS HA4 19939 0.1262 1.008000
19940 ca 16560 TPS CA3 19940 -0.1548 12.010000
19941 ha 16560 TPS HA3 19941 0.1282 1.008000
19942 ha 16561 TPS HA2 19942 0.1332 1.008000
19943 ca 16561 TPS CA2 19943 -0.0753 12.010000
19944 ca 16561 TPS CA1 19944 -0.361 12.010000
19945 si 16561 TPS Si 19945 1.1 28.085000
19946 ca 16561 TPS CA6 19946 -0.0753 12.010000
19947 ha 16561 TPS HH6 19947 0.1332 1.008000
19948 ca 16561 TPS CA5 19948 -0.1548 12.010000
19949 ha 16561 TPS HA5 19949 0.1282 1.008000
19950 ca 16561 TPS CA4 19950 -0.1028 12.010000
19951 ha 16561 TPS HA4 19951 0.1262 1.008000
19952 ca 16561 TPS CA3 19952 -0.1548 12.010000
19953 ha 16561 TPS HA3 19953 0.1282 1.008000
19954 ha 16562 TPS HA2 19954 0.1332 1.008000
19955 ca 16562 TPS CA2 19955 -0.0753 12.010000
19956 ca 16562 TPS CA1 19956 -0.361 12.010000
19957 si 16562 TPS Si 19957 1.1 28.085000
19958 ca 16562 TPS CA6 19958 -0.0753 12.010000
19959 ha 16562 TPS HH6 19959 0.1332 1.008000
19960 ca 16562 TPS CA5 19960 -0.1548 12.010000
19961 ha 16562 TPS HA5 19961 0.1282 1.008000
19962 ca 16562 TPS CA4 19962 -0.1028 12.010000
19963 ha 16562 TPS HA4 19963 0.1262 1.008000
19964 ca 16562 TPS CA3 19964 -0.1548 12.010000
19965 ha 16562 TPS HA3 19965 0.1282 1.008000
19966 ha 16563 TPS HA2 19966 0.1332 1.008000
19967 ca 16563 TPS CA2 19967 -0.0753 12.010000
19968 ca 16563 TPS CA1 19968 -0.361 12.010000
19969 si 16563 TPS Si 19969 1.1 28.085000
19970 ca 16563 TPS CA6 19970 -0.0753 12.010000
19971 ha 16563 TPS HH6 19971 0.1332 1.008000
19972 ca 16563 TPS CA5 19972 -0.1548 12.010000
19973 ha 16563 TPS HA5 19973 0.1282 1.008000
19974 ca 16563 TPS CA4 19974 -0.1028 12.010000
19975 ha 16563 TPS HA4 19975 0.1262 1.008000
19976 ca 16563 TPS CA3 19976 -0.1548 12.010000
19977 ha 16563 TPS HA3 19977 0.1282 1.008000
19978 ha 16564 TPS HA2 19978 0.1332 1.008000
19979 ca 16564 TPS CA2 19979 -0.0753 12.010000
19980 ca 16564 TPS CA1 19980 -0.361 12.010000
19981 si 16564 TPS Si 19981 1.1 28.085000
19982 ca 16564 TPS CA6 19982 -0.0753 12.010000
19983 ha 16564 TPS HH6 19983 0.1332 1.008000
19984 ca 16564 TPS CA5 19984 -0.1548 12.010000
19985 ha 16564 TPS HA5 19985 0.1282 1.008000
19986 ca 16564 TPS CA4 19986 -0.1028 12.010000
19987 ha 16564 TPS HA4 19987 0.1262 1.008000
19988 ca 16564 TPS CA3 19988 -0.1548 12.010000
19989 ha 16564 TPS HA3 19989 0.1282 1.008000
19990 ha 16565 TPS HA2 19990 0.1332 1.008000
19991 ca 16565 TPS CA2 19991 -0.0753 12.010000
19992 ca 16565 TPS CA1 19992 -0.361 12.010000
19993 si 16565 TPS Si 19993 1.1 28.085000
19994 ca 16565 TPS CA6 19994 -0.0753 12.010000
19995 ha 16565 TPS HH6 19995 0.1332 1.008000
19996 ca 16565 TPS CA5 19996 -0.1548 12.010000
19997 ha 16565 TPS HA5 19997 0.1282 1.008000
19998 ca 16565 TPS CA4 19998 -0.1028 12.010000
19999 ha 16565 TPS HA4 19999 0.1262 1.008000
20000 ca 16565 TPS CA3 20000 -0.1548 12.010000
20001 ha 16565 TPS HA3 20001 0.1282 1.008000
20002 ha 16566 TPS HA2 20002 0.1332 1.008000
20003 ca 16566 TPS CA2 20003 -0.0753 12.010000
20004 ca 16566 TPS CA1 20004 -0.361 12.010000
20005 si 16566 TPS Si 20005 1.1 28.085000
20006 ca 16566 TPS CA6 20006 -0.0753 12.010000
20007 ha 16566 TPS HH6 20007 0.1332 1.008000
20008 ca 16566 TPS CA5 20008 -0.1548 12.010000
20009 ha 16566 TPS HA5 20009 0.1282 1.008000
20010 ca 16566 TPS CA4 20010 -0.1028 12.010000
20011 ha 16566 TPS HA4 20011 0.1262 1.008000
20012 ca 16566 TPS CA3 20012 -0.1548 12.010000
20013 ha 16566 TPS HA3 20013 0.1282 1.008000
20014 ha 16567 TPS HA2 20014 0.1332 1.008000
20015 ca 16567 TPS CA2 20015 -0.0753 12.010000
20016 ca 16567 TPS CA1 20016 -0.361 12.010000
20017 si 16567 TPS Si 20017 1.1 28.085000
20018 ca 16567 TPS CA6 20018 -0.0753 12.010000
20019 ha 16567 TPS HH6 20019 0.1332 1.008000
20020 ca 16567 TPS CA5 20020 -0.1548 12.010000
20021 ha 16567 TPS HA5 20021 0.1282 1.008000
20022 ca 16567 TPS CA4 20022 -0.1028 12.010000
20023 ha 16567 TPS HA4 20023 0.1262 1.008000
20024 ca 16567 TPS CA3 20024 -0.1548 12.010000
20025 ha 16567 TPS HA3 20025 0.1282 1.008000
20026 ha 16568 TPS HA2 20026 0.1332 1.008000
20027 ca 16568 TPS CA2 20027 -0.0753 12.010000
20028 ca 16568 TPS CA1 20028 -0.361 12.010000
20029 si 16568 TPS Si 20029 1.1 28.085000
20030 ca 16568 TPS CA6 20030 -0.0753 12.010000
20031 ha 16568 TPS HH6 20031 0.1332 1.008000
20032 ca 16568 TPS CA5 20032 -0.1548 12.010000
20033 ha 16568 TPS HA5 20033 0.1282 1.008000
20034 ca 16568 TPS CA4 20034 -0.1028 12.010000
20035 ha 16568 TPS HA4 20035 0.1262 1.008000
20036 ca 16568 TPS CA3 20036 -0.1548 12.010000
20037 ha 16568 TPS HA3 20037 0.1282 1.008000
20038 ha 16569 TPS HA2 20038 0.1332 1.008000
20039 ca 16569 TPS CA2 20039 -0.0753 12.010000
20040 ca 16569 TPS CA1 20040 -0.361 12.010000
20041 si 16569 TPS Si 20041 1.1 28.085000
20042 ca 16569 TPS CA6 20042 -0.0753 12.010000
20043 ha 16569 TPS HH6 20043 0.1332 1.008000
20044 ca 16569 TPS CA5 20044 -0.1548 12.010000
20045 ha 16569 TPS HA5 20045 0.1282 1.008000
20046 ca 16569 TPS CA4 20046 -0.1028 12.010000
20047 ha 16569 TPS HA4 20047 0.1262 1.008000
20048 ca 16569 TPS CA3 20048 -0.1548 12.010000
20049 ha 16569 TPS HA3 20049 0.1282 1.008000
20050 ha 16570 TPS HA2 20050 0.1332 1.008000
20051 ca 16570 TPS CA2 20051 -0.0753 12.010000
20052 ca 16570 TPS CA1 20052 -0.361 12.010000
20053 si 16570 TPS Si 20053 1.1 28.085000
20054 ca 16570 TPS CA6 20054 -0.0753 12.010000
20055 ha 16570 TPS HH6 20055 0.1332 1.008000
20056 ca 16570 TPS CA5 20056 -0.1548 12.010000
20057 ha 16570 TPS HA5 20057 0.1282 1.008000
20058 ca 16570 TPS CA4 20058 -0.1028 12.010000
20059 ha 16570 TPS HA4 20059 0.1262 1.008000
20060 ca 16570 TPS CA3 20060 -0.1548 12.010000
20061 ha 16570 TPS HA3 20061 0.1282 1.008000
20062 ha 16571 TPS HA2 20062 0.1332 1.008000
20063 ca 16571 TPS CA2 20063 -0.0753 12.010000
20064 ca 16571 TPS CA1 20064 -0.361 12.010000
20065 si 16571 TPS Si 20065 1.1 28.085000
20066 ca 16571 TPS CA6 20066 -0.0753 12.010000
20067 ha 16571 TPS HH6 20067 0.1332 1.008000
20068 ca 16571 TPS CA5 20068 -0.1548 12.010000
20069 ha 16571 TPS HA5 20069 0.1282 1.008000
20070 ca 16571 TPS CA4 20070 -0.1028 12.010000
20071 ha 16571 TPS HA4 20071 0.1262 1.008000
20072 ca 16571 TPS CA3 20072 -0.1548 12.010000
20073 ha 16571 TPS HA3 20073 0.1282 1.008000
20074 ha 16572 TPS HA2 20074 0.1332 1.008000
20075 ca 16572 TPS CA2 20075 -0.0753 12.010000
20076 ca 16572 TPS CA1 20076 -0.361 12.010000
20077 si 16572 TPS Si 20077 1.1 28.085000
20078 ca 16572 TPS CA6 20078 -0.0753 12.010000
20079 ha 16572 TPS HH6 20079 0.1332 1.008000
20080 ca 16572 TPS CA5 20080 -0.1548 12.010000
20081 ha 16572 TPS HA5 20081 0.1282 1.008000
20082 ca 16572 TPS CA4 20082 -0.1028 12.010000
20083 ha 16572 TPS HA4 20083 0.1262 1.008000
20084 ca 16572 TPS CA3 20084 -0.1548 12.010000
20085 ha 16572 TPS HA3 20085 0.1282 1.008000
20086 ha 16573 TPS HA2 20086 0.1332 1.008000
20087 ca 16573 TPS CA2 20087 -0.0753 12.010000
20088 ca 16573 TPS CA1 20088 -0.361 12.010000
20089 si 16573 TPS Si 20089 1.1 28.085000
20090 ca 16573 TPS CA6 20090 -0.0753 12.010000
20091 ha 16573 TPS HH6 20091 0.1332 1.008000
20092 ca 16573 TPS CA5 20092 -0.1548 12.010000
20093 ha 16573 TPS HA5 20093 0.1282 1.008000
20094 ca 16573 TPS CA4 20094 -0.1028 12.010000
20095 ha 16573 TPS HA4 20095 0.1262 1.008000
20096 ca 16573 TPS CA3 20096 -0.1548 12.010000
20097 ha 16573 TPS HA3 20097 0.1282 1.008000
20098 ha 16574 TPS HA2 20098 0.1332 1.008000
20099 ca 16574 TPS CA2 20099 -0.0753 12.010000
20100 ca 16574 TPS CA1 20100 -0.361 12.010000
20101 si 16574 TPS Si 20101 1.1 28.085000
20102 ca 16574 TPS CA6 20102 -0.0753 12.010000
20103 ha 16574 TPS HH6 20103 0.1332 1.008000
20104 ca 16574 TPS CA5 20104 -0.1548 12.010000
20105 ha 16574 TPS HA5 20105 0.1282 1.008000
20106 ca 16574 TPS CA4 20106 -0.1028 12.010000
20107 ha 16574 TPS HA4 20107 0.1262 1.008000
20108 ca 16574 TPS CA3 20108 -0.1548 12.010000
20109 ha 16574 TPS HA3 20109 0.1282 1.008000
20110 ha 16575 TPS HA2 20110 0.1332 1.008000
20111 ca 16575 TPS CA2 20111 -0.0753 12.010000
20112 ca 16575 TPS CA1 20112 -0.361 12.010000
20113 si 16575 TPS Si 20113 1.1 28.085000
20114 ca 16575 TPS CA6 20114 -0.0753 12.010000
20115 ha 16575 TPS HH6 20115 0.1332 1.008000
20116 ca 16575 TPS CA5 20116 -0.1548 12.010000
20117 ha 16575 TPS HA5 20117 0.1282 1.008000
20118 ca 16575 TPS CA4 20118 -0.1028 12.010000
20119 ha 16575 TPS HA4 20119 0.1262 1.008000
20120 ca 16575 TPS CA3 20120 -0.1548 12.010000
20121 ha 16575 TPS HA3 20121 0.1282 1.008000
20122 ha 16576 TPS HA2 20122 0.1332 1.008000
20123 ca 16576 TPS CA2 20123 -0.0753 12.010000
20124 ca 16576 TPS CA1 20124 -0.361 12.010000
20125 si 16576 TPS Si 20125 1.1 28.085000
20126 ca 16576 TPS CA6 20126 -0.0753 12.010000
20127 ha 16576 TPS HH6 20127 0.1332 1.008000
20128 ca 16576 TPS CA5 20128 -0.1548 12.010000
20129 ha 16576 TPS HA5 20129 0.1282 1.008000
20130 ca 16576 TPS CA4 20130 -0.1028 12.010000
20131 ha 16576 TPS HA4 20131 0.1262 1.008000
20132 ca 16576 TPS CA3 20132 -0.1548 12.010000
20133 ha 16576 TPS HA3 20133 0.1282 1.008000
20134 ha 16577 TPS HA2 20134 0.1332 1.008000
20135 ca 16577 TPS CA2 20135 -0.0753 12.010000
20136 ca 16577 TPS CA1 20136 -0.361 12.010000
20137 si 16577 TPS Si 20137 1.1 28.085000
20138 ca 16577 TPS CA6 20138 -0.0753 12.010000
20139 ha 16577 TPS HH6 20139 0.1332 1.008000
20140 ca 16577 TPS CA5 20140 -0.1548 12.010000
20141 ha 16577 TPS HA5 20141 0.1282 1.008000
20142 ca 16577 TPS CA4 20142 -0.1028 12.010000
20143 ha 16577 TPS HA4 20143 0.1262 1.008000
20144 ca 16577 TPS CA3 20144 -0.1548 12.010000
20145 ha 16577 TPS HA3 20145 0.1282 1.008000
20146 ha 16578 TPS HA2 20146 0.1332 1.008000
20147 ca 16578 TPS CA2 20147 -0.0753 12.010000
20148 ca 16578 TPS CA1 20148 -0.361 12.010000
20149 si 16578 TPS Si 20149 1.1 28.085000
20150 ca 16578 TPS CA6 20150 -0.0753 12.010000
20151 ha 16578 TPS HH6 20151 0.1332 1.008000
20152 ca 16578 TPS CA5 20152 -0.1548 12.010000
20153 ha 16578 TPS HA5 20153 0.1282 1.008000
20154 ca 16578 TPS CA4 20154 -0.1028 12.010000
20155 ha 16578 TPS HA4 20155 0.1262 1.008000
20156 ca 16578 TPS CA3 20156 -0.1548 12.010000
20157 ha 16578 TPS HA3 20157 0.1282 1.008000
20158 ha 16579 TPS HA2 20158 0.1332 1.008000
20159 ca 16579 TPS CA2 20159 -0.0753 12.010000
20160 ca 16579 TPS CA1 20160 -0.361 12.010000
20161 si 16579 TPS Si 20161 1.1 28.085000
20162 ca 16579 TPS CA6 20162 -0.0753 12.010000
20163 ha 16579 TPS HH6 20163 0.1332 1.008000
20164 ca 16579 TPS CA5 20164 -0.1548 12.010000
20165 ha 16579 TPS HA5 20165 0.1282 1.008000
20166 ca 16579 TPS CA4 20166 -0.1028 12.010000
20167 ha 16579 TPS HA4 20167 0.1262 1.008000
20168 ca 16579 TPS CA3 20168 -0.1548 12.010000
20169 ha 16579 TPS HA3 20169 0.1282 1.008000
20170 ha 16580 TPS HA2 20170 0.1332 1.008000
20171 ca 16580 TPS CA2 20171 -0.0753 12.010000
20172 ca 16580 TPS CA1 20172 -0.361 12.010000
20173 si 16580 TPS Si 20173 1.1 28.085000
20174 ca 16580 TPS CA6 20174 -0.0753 12.010000
20175 ha 16580 TPS HH6 20175 0.1332 1.008000
20176 ca 16580 TPS CA5 20176 -0.1548 12.010000
20177 ha 16580 TPS HA5 20177 0.1282 1.008000
20178 ca 16580 TPS CA4 20178 -0.1028 12.010000
20179 ha 16580 TPS HA4 20179 0.1262 1.008000
20180 ca 16580 TPS CA3 20180 -0.1548 12.010000
20181 ha 16580 TPS HA3 20181 0.1282 1.008000
20182 ha 16581 TPS HA2 20182 0.1332 1.008000
20183 ca 16581 TPS CA2 20183 -0.0753 12.010000
20184 ca 16581 TPS CA1 20184 -0.361 12.010000
20185 si 16581 TPS Si 20185 1.1 28.085000
20186 ca 16581 TPS CA6 20186 -0.0753 12.010000
20187 ha 16581 TPS HH6 20187 0.1332 1.008000
20188 ca 16581 TPS CA5 20188 -0.1548 12.010000
20189 ha 16581 TPS HA5 20189 0.1282 1.008000
20190 ca 16581 TPS CA4 20190 -0.1028 12.010000
20191 ha 16581 TPS HA4 20191 0.1262 1.008000
20192 ca 16581 TPS CA3 20192 -0.1548 12.010000
20193 ha 16581 TPS HA3 20193 0.1282 1.008000
20194 ha 16582 TPS HA2 20194 0.1332 1.008000
20195 ca 16582 TPS CA2 20195 -0.0753 12.010000
20196 ca 16582 TPS CA1 20196 -0.361 12.010000
20197 si 16582 TPS Si 20197 1.1 28.085000
20198 ca 16582 TPS CA6 20198 -0.0753 12.010000
20199 ha 16582 TPS HH6 20199 0.1332 1.008000
20200 ca 16582 TPS CA5 20200 -0.1548 12.010000
20201 ha 16582 TPS HA5 20201 0.1282 1.008000
20202 ca 16582 TPS CA4 20202 -0.1028 12.010000
20203 ha 16582 TPS HA4 20203 0.1262 1.008000
20204 ca 16582 TPS CA3 20204 -0.1548 12.010000
20205 ha 16582 TPS HA3 20205 0.1282 1.008000
20206 ha 16583 TPS HA2 20206 0.1332 1.008000
20207 ca 16583 TPS CA2 20207 -0.0753 12.010000
20208 ca 16583 TPS CA1 20208 -0.361 12.010000
20209 si 16583 TPS Si 20209 1.1 28.085000
20210 ca 16583 TPS CA6 20210 -0.0753 12.010000
20211 ha 16583 TPS HH6 20211 0.1332 1.008000
20212 ca 16583 TPS CA5 20212 -0.1548 12.010000
20213 ha 16583 TPS HA5 20213 0.1282 1.008000
20214 ca 16583 TPS CA4 20214 -0.1028 12.010000
20215 ha 16583 TPS HA4 20215 0.1262 1.008000
20216 ca 16583 TPS CA3 20216 -0.1548 12.010000
20217 ha 16583 TPS HA3 20217 0.1282 1.008000
20218 ha 16584 TPS HA2 20218 0.1332 1.008000
20219 ca 16584 TPS CA2 20219 -0.0753 12.010000
20220 ca 16584 TPS CA1 20220 -0.361 12.010000
20221 si 16584 TPS Si 20221 1.1 28.085000
20222 ca 16584 TPS CA6 20222 -0.0753 12.010000
20223 ha 16584 TPS HH6 20223 0.1332 1.008000
20224 ca 16584 TPS CA5 20224 -0.1548 12.010000
20225 ha 16584 TPS HA5 20225 0.1282 1.008000
20226 ca 16584 TPS CA4 20226 -0.1028 12.010000
20227 ha 16584 TPS HA4 20227 0.1262 1.008000
20228 ca 16584 TPS CA3 20228 -0.1548 12.010000
20229 ha 16584 TPS HA3 20229 0.1282 1.008000
20230 ha 16585 TPS HA2 20230 0.1332 1.008000
20231 ca 16585 TPS CA2 20231 -0.0753 12.010000
20232 ca 16585 TPS CA1 20232 -0.361 12.010000
20233 si 16585 TPS Si 20233 1.1 28.085000
20234 ca 16585 TPS CA6 20234 -0.0753 12.010000
20235 ha 16585 TPS HH6 20235 0.1332 1.008000
20236 ca 16585 TPS CA5 20236 -0.1548 12.010000
20237 ha 16585 TPS HA5 20237 0.1282 1.008000
20238 ca 16585 TPS CA4 20238 -0.1028 12.010000
20239 ha 16585 TPS HA4 20239 0.1262 1.008000
20240 ca 16585 TPS CA3 20240 -0.1548 12.010000
20241 ha 16585 TPS HA3 20241 0.1282 1.008000
20242 ha 16586 TPS HA2 20242 0.1332 1.008000
20243 ca 16586 TPS CA2 20243 -0.0753 12.010000
20244 ca 16586 TPS CA1 20244 -0.361 12.010000
20245 si 16586 TPS Si 20245 1.1 28.085000
20246 ca 16586 TPS CA6 20246 -0.0753 12.010000
20247 ha 16586 TPS HH6 20247 0.1332 1.008000
20248 ca 16586 TPS CA5 20248 -0.1548 12.010000
20249 ha 16586 TPS HA5 20249 0.1282 1.008000
20250 ca 16586 TPS CA4 20250 -0.1028 12.010000
20251 ha 16586 TPS HA4 20251 0.1262 1.008000
20252 ca 16586 TPS CA3 20252 -0.1548 12.010000
20253 ha 16586 TPS HA3 20253 0.1282 1.008000
20254 ha 16587 TPS HA2 20254 0.1332 1.008000
20255 ca 16587 TPS CA2 20255 -0.0753 12.010000
20256 ca 16587 TPS CA1 20256 -0.361 12.010000
20257 si 16587 TPS Si 20257 1.1 28.085000
20258 ca 16587 TPS CA6 20258 -0.0753 12.010000
20259 ha 16587 TPS HH6 20259 0.1332 1.008000
20260 ca 16587 TPS CA5 20260 -0.1548 12.010000
20261 ha 16587 TPS HA5 20261 0.1282 1.008000
20262 ca 16587 TPS CA4 20262 -0.1028 12.010000
20263 ha 16587 TPS HA4 20263 0.1262 1.008000
20264 ca 16587 TPS CA3 20264 -0.1548 12.010000
20265 ha 16587 TPS HA3 20265 0.1282 1.008000
20266 ha 16588 TPS HA2 20266 0.1332 1.008000
20267 ca 16588 TPS CA2 20267 -0.0753 12.010000
20268 ca 16588 TPS CA1 20268 -0.361 12.010000
20269 si 16588 TPS Si 20269 1.1 28.085000
20270 ca 16588 TPS CA6 20270 -0.0753 12.010000
20271 ha 16588 TPS HH6 20271 0.1332 1.008000
20272 ca 16588 TPS CA5 20272 -0.1548 12.010000
20273 ha 16588 TPS HA5 20273 0.1282 1.008000
20274 ca 16588 TPS CA4 20274 -0.1028 12.010000
20275 ha 16588 TPS HA4 20275 0.1262 1.008000
20276 ca 16588 TPS CA3 20276 -0.1548 12.010000
20277 ha 16588 TPS HA3 20277 0.1282 1.008000
20278 ha 16589 TPS HA2 20278 0.1332 1.008000
20279 ca 16589 TPS CA2 20279 -0.0753 12.010000
20280 ca 16589 TPS CA1 20280 -0.361 12.010000
20281 si 16589 TPS Si 20281 1.1 28.085000
20282 ca 16589 TPS CA6 20282 -0.0753 12.010000
20283 ha 16589 TPS HH6 20283 0.1332 1.008000
20284 ca 16589 TPS CA5 20284 -0.1548 12.010000
20285 ha 16589 TPS HA5 20285 0.1282 1.008000
20286 ca 16589 TPS CA4 20286 -0.1028 12.010000
20287 ha 16589 TPS HA4 20287 0.1262 1.008000
20288 ca 16589 TPS CA3 20288 -0.1548 12.010000
20289 ha 16589 TPS HA3 20289 0.1282 1.008000
20290 ha 16590 TPS HA2 20290 0.1332 1.008000
20291 ca 16590 TPS CA2 20291 -0.0753 12.010000
20292 ca 16590 TPS CA1 20292 -0.361 12.010000
20293 si 16590 TPS Si 20293 1.1 28.085000
20294 ca 16590 TPS CA6 20294 -0.0753 12.010000
20295 ha 16590 TPS HH6 20295 0.1332 1.008000
20296 ca 16590 TPS CA5 20296 -0.1548 12.010000
20297 ha 16590 TPS HA5 20297 0.1282 1.008000
20298 ca 16590 TPS CA4 20298 -0.1028 12.010000
20299 ha 16590 TPS HA4 20299 0.1262 1.008000
20300 ca 16590 TPS CA3 20300 -0.1548 12.010000
20301 ha 16590 TPS HA3 20301 0.1282 1.008000
20302 ha 16591 TPS HA2 20302 0.1332 1.008000
20303 ca 16591 TPS CA2 20303 -0.0753 12.010000
20304 ca 16591 TPS CA1 20304 -0.361 12.010000
20305 si 16591 TPS Si 20305 1.1 28.085000
20306 ca 16591 TPS CA6 20306 -0.0753 12.010000
20307 ha 16591 TPS HH6 20307 0.1332 1.008000
20308 ca 16591 TPS CA5 20308 -0.1548 12.010000
20309 ha 16591 TPS HA5 20309 0.1282 1.008000
20310 ca 16591 TPS CA4 20310 -0.1028 12.010000
20311 ha 16591 TPS HA4 20311 0.1262 1.008000
20312 ca 16591 TPS CA3 20312 -0.1548 12.010000
20313 ha 16591 TPS HA3 20313 0.1282 1.008000
20314 ha 16592 TPS HA2 20314 0.1332 1.008000
20315 ca 16592 TPS CA2 20315 -0.0753 12.010000
20316 ca 16592 TPS CA1 20316 -0.361 12.010000
20317 si 16592 TPS Si 20317 1.1 28.085000
20318 ca 16592 TPS CA6 20318 -0.0753 12.010000
20319 ha 16592 TPS HH6 20319 0.1332 1.008000
20320 ca 16592 TPS CA5 20320 -0.1548 12.010000
20321 ha 16592 TPS HA5 20321 0.1282 1.008000
20322 ca 16592 TPS CA4 20322 -0.1028 12.010000
20323 ha 16592 TPS HA4 20323 0.1262 1.008000
20324 ca 16592 TPS CA3 20324 -0.1548 12.010000
20325 ha 16592 TPS HA3 20325 0.1282 1.008000
20326 ha 16593 TPS HA2 20326 0.1332 1.008000
20327 ca 16593 TPS CA2 20327 -0.0753 12.010000
20328 ca 16593 TPS CA1 20328 -0.361 12.010000
20329 si 16593 TPS Si 20329 1.1 28.085000
20330 ca 16593 TPS CA6 20330 -0.0753 12.010000
20331 ha 16593 TPS HH6 20331 0.1332 1.008000
20332 ca 16593 TPS CA5 20332 -0.1548 12.010000
20333 ha 16593 TPS HA5 20333 0.1282 1.008000
20334 ca 16593 TPS CA4 20334 -0.1028 12.010000
20335 ha 16593 TPS HA4 20335 0.1262 1.008000
20336 ca 16593 TPS CA3 20336 -0.1548 12.010000
20337 ha 16593 TPS HA3 20337 0.1282 1.008000
20338 ha 16594 TPS HA2 20338 0.1332 1.008000
20339 ca 16594 TPS CA2 20339 -0.0753 12.010000
20340 ca 16594 TPS CA1 20340 -0.361 12.010000
20341 si 16594 TPS Si 20341 1.1 28.085000
20342 ca 16594 TPS CA6 20342 -0.0753 12.010000
20343 ha 16594 TPS HH6 20343 0.1332 1.008000
20344 ca 16594 TPS CA5 20344 -0.1548 12.010000
20345 ha 16594 TPS HA5 20345 0.1282 1.008000
20346 ca 16594 TPS CA4 20346 -0.1028 12.010000
20347 ha 16594 TPS HA4 20347 0.1262 1.008000
20348 ca 16594 TPS CA3 20348 -0.1548 12.010000
20349 ha 16594 TPS HA3 20349 0.1282 1.008000
20350 ha 16595 TPS HA2 20350 0.1332 1.008000
20351 ca 16595 TPS CA2 20351 -0.0753 12.010000
20352 ca 16595 TPS CA1 20352 -0.361 12.010000
20353 si 16595 TPS Si 20353 1.1 28.085000
20354 ca 16595 TPS CA6 20354 -0.0753 12.010000
20355 ha 16595 TPS HH6 20355 0.1332 1.008000
20356 ca 16595 TPS CA5 20356 -0.1548 12.010000
20357 ha 16595 TPS HA5 20357 0.1282 1.008000
20358 ca 16595 TPS CA4 20358 -0.1028 12.010000
20359 ha 16595 TPS HA4 20359 0.1262 1.008000
20360 ca 16595 TPS CA3 20360 -0.1548 12.010000
20361 ha 16595 TPS HA3 20361 0.1282 1.008000
20362 ha 16596 TPS HA2 20362 0.1332 1.008000
20363 ca 16596 TPS CA2 20363 -0.0753 12.010000
20364 ca 16596 TPS CA1 20364 -0.361 12.010000
20365 si 16596 TPS Si 20365 1.1 28.085000
20366 ca 16596 TPS CA6 20366 -0.0753 12.010000
20367 ha 16596 TPS HH6 20367 0.1332 1.008000
20368 ca 16596 TPS CA5 20368 -0.1548 12.010000
20369 ha 16596 TPS HA5 20369 0.1282 1.008000
20370 ca 16596 TPS CA4 20370 -0.1028 12.010000
20371 ha 16596 TPS HA4 20371 0.1262 1.008000
20372 ca 16596 TPS CA3 20372 -0.1548 12.010000
20373 ha 16596 TPS HA3 20373 0.1282 1.008000
20374 ha 16597 TPS HA2 20374 0.1332 1.008000
20375 ca 16597 TPS CA2 20375 -0.0753 12.010000
20376 ca 16597 TPS CA1 20376 -0.361 12.010000
20377 si 16597 TPS Si 20377 1.1 28.085000
20378 ca 16597 TPS CA6 20378 -0.0753 12.010000
20379 ha 16597 TPS HH6 20379 0.1332 1.008000
20380 ca 16597 TPS CA5 20380 -0.1548 12.010000
20381 ha 16597 TPS HA5 20381 0.1282 1.008000
20382 ca 16597 TPS CA4 20382 -0.1028 12.010000
20383 ha 16597 TPS HA4 20383 0.1262 1.008000
20384 ca 16597 TPS CA3 20384 -0.1548 12.010000
20385 ha 16597 TPS HA3 20385 0.1282 1.008000
20386 ha 16598 TPS HA2 20386 0.1332 1.008000
20387 ca 16598 TPS CA2 20387 -0.0753 12.010000
20388 ca 16598 TPS CA1 20388 -0.361 12.010000
20389 si 16598 TPS Si 20389 1.1 28.085000
20390 ca 16598 TPS CA6 20390 -0.0753 12.010000
20391 ha 16598 TPS HH6 20391 0.1332 1.008000
20392 ca 16598 TPS CA5 20392 -0.1548 12.010000
20393 ha 16598 TPS HA5 20393 0.1282 1.008000
20394 ca 16598 TPS CA4 20394 -0.1028 12.010000
20395 ha 16598 TPS HA4 20395 0.1262 1.008000
20396 ca 16598 TPS CA3 20396 -0.1548 12.010000
20397 ha 16598 TPS HA3 20397 0.1282 1.008000
20398 ha 16599 TPS HA2 20398 0.1332 1.008000
20399 ca 16599 TPS CA2 20399 -0.0753 12.010000
20400 ca 16599 TPS CA1 20400 -0.361 12.010000
20401 si 16599 TPS Si 20401 1.1 28.085000
20402 ca 16599 TPS CA6 20402 -0.0753 12.010000
20403 ha 16599 TPS HH6 20403 0.1332 1.008000
20404 ca 16599 TPS CA5 20404 -0.1548 12.010000
20405 ha 16599 TPS HA5 20405 0.1282 1.008000
20406 ca 16599 TPS CA4 20406 -0.1028 12.010000
20407 ha 16599 TPS HA4 20407 0.1262 1.008000
20408 ca 16599 TPS CA3 20408 -0.1548 12.010000
20409 ha 16599 TPS HA3 20409 0.1282 1.008000
20410 ha 16600 TPS HA2 20410 0.1332 1.008000
20411 ca 16600 TPS CA2 20411 -0.0753 12.010000
20412 ca 16600 TPS CA1 20412 -0.361 12.010000
20413 si 16600 TPS Si 20413 1.1 28.085000
20414 ca 16600 TPS CA6 20414 -0.0753 12.010000
20415 ha 16600 TPS HH6 20415 0.1332 1.008000
20416 ca 16600 TPS CA5 20416 -0.1548 12.010000
20417 ha 16600 TPS HA5 20417 0.1282 1.008000
20418 ca 16600 TPS CA4 20418 -0.1028 12.010000
20419 ha 16600 TPS HA4 20419 0.1262 1.008000
20420 ca 16600 TPS CA3 20420 -0.1548 12.010000
20421 ha 16600 TPS HA3 20421 0.1282 1.008000
20422 ha 16601 TPS HA2 20422 0.1332 1.008000
20423 ca 16601 TPS CA2 20423 -0.0753 12.010000
20424 ca 16601 TPS CA1 20424 -0.361 12.010000
20425 si 16601 TPS Si 20425 1.1 28.085000
20426 ca 16601 TPS CA6 20426 -0.0753 12.010000
20427 ha 16601 TPS HH6 20427 0.1332 1.008000
20428 ca 16601 TPS CA5 20428 -0.1548 12.010000
20429 ha 16601 TPS HA5 20429 0.1282 1.008000
20430 ca 16601 TPS CA4 20430 -0.1028 12.010000
20431 ha 16601 TPS HA4 20431 0.1262 1.008000
20432 ca 16601 TPS CA3 20432 -0.1548 12.010000
20433 ha 16601 TPS HA3 20433 0.1282 1.008000
20434 ha 16602 TPS HA2 20434 0.1332 1.008000
20435 ca 16602 TPS CA2 20435 -0.0753 12.010000
20436 ca 16602 TPS CA1 20436 -0.361 12.010000
20437 si 16602 TPS Si 20437 1.1 28.085000
20438 ca 16602 TPS CA6 20438 -0.0753 12.010000
20439 ha 16602 TPS HH6 20439 0.1332 1.008000
20440 ca 16602 TPS CA5 20440 -0.1548 12.010000
20441 ha 16602 TPS HA5 20441 0.1282 1.008000
20442 ca 16602 TPS CA4 20442 -0.1028 12.010000
20443 ha 16602 TPS HA4 20443 0.1262 1.008000
20444 ca 16602 TPS CA3 20444 -0.1548 12.010000
20445 ha 16602 TPS HA3 20445 0.1282 1.008000
20446 ha 16603 TPS HA2 20446 0.1332 1.008000
20447 ca 16603 TPS CA2 20447 -0.0753 12.010000
20448 ca 16603 TPS CA1 20448 -0.361 12.010000
20449 si 16603 TPS Si 20449 1.1 28.085000
20450 ca 16603 TPS CA6 20450 -0.0753 12.010000
20451 ha 16603 TPS HH6 20451 0.1332 1.008000
20452 ca 16603 TPS CA5 20452 -0.1548 12.010000
20453 ha 16603 TPS HA5 20453 0.1282 1.008000
20454 ca 16603 TPS CA4 20454 -0.1028 12.010000
20455 ha 16603 TPS HA4 20455 0.1262 1.008000
20456 ca 16603 TPS CA3 20456 -0.1548 12.010000
20457 ha 16603 TPS HA3 20457 0.1282 1.008000
20458 ha 16604 TPS HA2 20458 0.1332 1.008000
20459 ca 16604 TPS CA2 20459 -0.0753 12.010000
20460 ca 16604 TPS CA1 20460 -0.361 12.010000
20461 si 16604 TPS Si 20461 1.1 28.085000
20462 ca 16604 TPS CA6 20462 -0.0753 12.010000
20463 ha 16604 TPS HH6 20463 0.1332 1.008000
20464 ca 16604 TPS CA5 20464 -0.1548 12.010000
20465 ha 16604 TPS HA5 20465 0.1282 1.008000
20466 ca 16604 TPS CA4 20466 -0.1028 12.010000
20467 ha 16604 TPS HA4 20467 0.1262 1.008000
20468 ca 16604 TPS CA3 20468 -0.1548 12.010000
20469 ha 16604 TPS HA3 20469 0.1282 1.008000
20470 ha 16605 TPS HA2 20470 0.1332 1.008000
20471 ca 16605 TPS CA2 20471 -0.0753 12.010000
20472 ca 16605 TPS CA1 20472 -0.361 12.010000
20473 si 16605 TPS Si 20473 1.1 28.085000
20474 ca 16605 TPS CA6 20474 -0.0753 12.010000
20475 ha 16605 TPS HH6 20475 0.1332 1.008000
20476 ca 16605 TPS CA5 20476 -0.1548 12.010000
20477 ha 16605 TPS HA5 20477 0.1282 1.008000
20478 ca 16605 TPS CA4 20478 -0.1028 12.010000
20479 ha 16605 TPS HA4 20479 0.1262 1.008000
20480 ca 16605 TPS CA3 20480 -0.1548 12.010000
20481 ha 16605 TPS HA3 20481 0.1282 1.008000
20482 ha 16606 TPS HA2 20482 0.1332 1.008000
20483 ca 16606 TPS CA2 20483 -0.0753 12.010000
20484 ca 16606 TPS CA1 20484 -0.361 12.010000
20485 si 16606 TPS Si 20485 1.1 28.085000
20486 ca 16606 TPS CA6 20486 -0.0753 12.010000
20487 ha 16606 TPS HH6 20487 0.1332 1.008000
20488 ca 16606 TPS CA5 20488 -0.1548 12.010000
20489 ha 16606 TPS HA5 20489 0.1282 1.008000
20490 ca 16606 TPS CA4 20490 -0.1028 12.010000
20491 ha 16606 TPS HA4 20491 0.1262 1.008000
20492 ca 16606 TPS CA3 20492 -0.1548 12.010000
20493 ha 16606 TPS HA3 20493 0.1282 1.008000
20494 ha 16607 TPS HA2 20494 0.1332 1.008000
20495 ca 16607 TPS CA2 20495 -0.0753 12.010000
20496 ca 16607 TPS CA1 20496 -0.361 12.010000
20497 si 16607 TPS Si 20497 1.1 28.085000
20498 ca 16607 TPS CA6 20498 -0.0753 12.010000
20499 ha 16607 TPS HH6 20499 0.1332 1.008000
20500 ca 16607 TPS CA5 20500 -0.1548 12.010000
20501 ha 16607 TPS HA5 20501 0.1282 1.008000
20502 ca 16607 TPS CA4 20502 -0.1028 12.010000
20503 ha 16607 TPS HA4 20503 0.1262 1.008000
20504 ca 16607 TPS CA3 20504 -0.1548 12.010000
20505 ha 16607 TPS HA3 20505 0.1282 1.008000
20506 ha 16608 TPS HA2 20506 0.1332 1.008000
20507 ca 16608 TPS CA2 20507 -0.0753 12.010000
20508 ca 16608 TPS CA1 20508 -0.361 12.010000
20509 si 16608 TPS Si 20509 1.1 28.085000
20510 ca 16608 TPS CA6 20510 -0.0753 12.010000
20511 ha 16608 TPS HH6 20511 0.1332 1.008000
20512 ca 16608 TPS CA5 20512 -0.1548 12.010000
20513 ha 16608 TPS HA5 20513 0.1282 1.008000
20514 ca 16608 TPS CA4 20514 -0.1028 12.010000
20515 ha 16608 TPS HA4 20515 0.1262 1.008000
20516 ca 16608 TPS CA3 20516 -0.1548 12.010000
20517 ha 16608 TPS HA3 20517 0.1282 1.008000
20518 ha 16609 TPS HA2 20518 0.1332 1.008000
20519 ca 16609 TPS CA2 20519 -0.0753 12.010000
20520 ca 16609 TPS CA1 20520 -0.361 12.010000
20521 si 16609 TPS Si 20521 1.1 28.085000
20522 ca 16609 TPS CA6 20522 -0.0753 12.010000
20523 ha 16609 TPS HH6 20523 0.1332 1.008000
20524 ca 16609 TPS CA5 20524 -0.1548 12.010000
20525 ha 16609 TPS HA5 20525 0.1282 1.008000
20526 ca 16609 TPS CA4 20526 -0.1028 12.010000
20527 ha 16609 TPS HA4 20527 0.1262 1.008000
20528 ca 16609 TPS CA3 20528 -0.1548 12.010000
20529 ha 16609 TPS HA3 20529 0.1282 1.008000
20530 ha 16610 TPS HA2 20530 0.1332 1.008000
20531 ca 16610 TPS CA2 20531 -0.0753 12.010000
20532 ca 16610 TPS CA1 20532 -0.361 12.010000
20533 si 16610 TPS Si 20533 1.1 28.085000
20534 ca 16610 TPS CA6 20534 -0.0753 12.010000
20535 ha 16610 TPS HH6 20535 0.1332 1.008000
20536 ca 16610 TPS CA5 20536 -0.1548 12.010000
20537 ha 16610 TPS HA5 20537 0.1282 1.008000
20538 ca 16610 TPS CA4 20538 -0.1028 12.010000
20539 ha 16610 TPS HA4 20539 0.1262 1.008000
20540 ca 16610 TPS CA3 20540 -0.1548 12.010000
20541 ha 16610 TPS HA3 20541 0.1282 1.008000
20542 ha 16611 TPS HA2 20542 0.1332 1.008000
20543 ca 16611 TPS CA2 20543 -0.0753 12.010000
20544 ca 16611 TPS CA1 20544 -0.361 12.010000
20545 si 16611 TPS Si 20545 1.1 28.085000
20546 ca 16611 TPS CA6 20546 -0.0753 12.010000
20547 ha 16611 TPS HH6 20547 0.1332 1.008000
20548 ca 16611 TPS CA5 20548 -0.1548 12.010000
20549 ha 16611 TPS HA5 20549 0.1282 1.008000
20550 ca 16611 TPS CA4 20550 -0.1028 12.010000
20551 ha 16611 TPS HA4 20551 0.1262 1.008000
20552 ca 16611 TPS CA3 20552 -0.1548 12.010000
20553 ha 16611 TPS HA3 20553 0.1282 1.008000
20554 ha 16612 TPS HA2 20554 0.1332 1.008000
20555 ca 16612 TPS CA2 20555 -0.0753 12.010000
20556 ca 16612 TPS CA1 20556 -0.361 12.010000
20557 si 16612 TPS Si 20557 1.1 28.085000
20558 ca 16612 TPS CA6 20558 -0.0753 12.010000
20559 ha 16612 TPS HH6 20559 0.1332 1.008000
20560 ca 16612 TPS CA5 20560 -0.1548 12.010000
20561 ha 16612 TPS HA5 20561 0.1282 1.008000
20562 ca 16612 TPS CA4 20562 -0.1028 12.010000
20563 ha 16612 TPS HA4 20563 0.1262 1.008000
20564 ca 16612 TPS CA3 20564 -0.1548 12.010000
20565 ha 16612 TPS HA3 20565 0.1282 1.008000
20566 ha 16613 TPS HA2 20566 0.1332 1.008000
20567 ca 16613 TPS CA2 20567 -0.0753 12.010000
20568 ca 16613 TPS CA1 20568 -0.361 12.010000
20569 si 16613 TPS Si 20569 1.1 28.085000
20570 ca 16613 TPS CA6 20570 -0.0753 12.010000
20571 ha 16613 TPS HH6 20571 0.1332 1.008000
20572 ca 16613 TPS CA5 20572 -0.1548 12.010000
20573 ha 16613 TPS HA5 20573 0.1282 1.008000
20574 ca 16613 TPS CA4 20574 -0.1028 12.010000
20575 ha 16613 TPS HA4 20575 0.1262 1.008000
20576 ca 16613 TPS CA3 20576 -0.1548 12.010000
20577 ha 16613 TPS HA3 20577 0.1282 1.008000
20578 ha 16614 TPS HA2 20578 0.1332 1.008000
20579 ca 16614 TPS CA2 20579 -0.0753 12.010000
20580 ca 16614 TPS CA1 20580 -0.361 12.010000
20581 si 16614 TPS Si 20581 1.1 28.085000
20582 ca 16614 TPS CA6 20582 -0.0753 12.010000
20583 ha 16614 TPS HH6 20583 0.1332 1.008000
20584 ca 16614 TPS CA5 20584 -0.1548 12.010000
20585 ha 16614 TPS HA5 20585 0.1282 1.008000
20586 ca 16614 TPS CA4 20586 -0.1028 12.010000
20587 ha 16614 TPS HA4 20587 0.1262 1.008000
20588 ca 16614 TPS CA3 20588 -0.1548 12.010000
20589 ha 16614 TPS HA3 20589 0.1282 1.008000
20590 ha 16615 TPS HA2 20590 0.1332 1.008000
20591 ca 16615 TPS CA2 20591 -0.0753 12.010000
20592 ca 16615 TPS CA1 20592 -0.361 12.010000
20593 si 16615 TPS Si 20593 1.1 28.085000
20594 ca 16615 TPS CA6 20594 -0.0753 12.010000
20595 ha 16615 TPS HH6 20595 0.1332 1.008000
20596 ca 16615 TPS CA5 20596 -0.1548 12.010000
20597 ha 16615 TPS HA5 20597 0.1282 1.008000
20598 ca 16615 TPS CA4 20598 -0.1028 12.010000
20599 ha 16615 TPS HA4 20599 0.1262 1.008000
20600 ca 16615 TPS CA3 20600 -0.1548 12.010000
20601 ha 16615 TPS HA3 20601 0.1282 1.008000
20602 ha 16616 TPS HA2 20602 0.1332 1.008000
20603 ca 16616 TPS CA2 20603 -0.0753 12.010000
20604 ca 16616 TPS CA1 20604 -0.361 12.010000
20605 si 16616 TPS Si 20605 1.1 28.085000
20606 ca 16616 TPS CA6 20606 -0.0753 12.010000
20607 ha 16616 TPS HH6 20607 0.1332 1.008000
20608 ca 16616 TPS CA5 20608 -0.1548 12.010000
20609 ha 16616 TPS HA5 20609 0.1282 1.008000
20610 ca 16616 TPS CA4 20610 -0.1028 12.010000
20611 ha 16616 TPS HA4 20611 0.1262 1.008000
20612 ca 16616 TPS CA3 20612 -0.1548 12.010000
20613 ha 16616 TPS HA3 20613 0.1282 1.008000
20614 ha 16617 TPS HA2 20614 0.1332 1.008000
20615 ca 16617 TPS CA2 20615 -0.0753 12.010000
20616 ca 16617 TPS CA1 20616 -0.361 12.010000
20617 si 16617 TPS Si 20617 1.1 28.085000
20618 ca 16617 TPS CA6 20618 -0.0753 12.010000
20619 ha 16617 TPS HH6 20619 0.1332 1.008000
20620 ca 16617 TPS CA5 20620 -0.1548 12.010000
20621 ha 16617 TPS HA5 20621 0.1282 1.008000
20622 ca 16617 TPS CA4 20622 -0.1028 12.010000
20623 ha 16617 TPS HA4 20623 0.1262 1.008000
20624 ca 16617 TPS CA3 20624 -0.1548 12.010000
20625 ha 16617 TPS HA3 20625 0.1282 1.008000
20626 ha 16618 TPS HA2 20626 0.1332 1.008000
20627 ca 16618 TPS CA2 20627 -0.0753 12.010000
20628 ca 16618 TPS CA1 20628 -0.361 12.010000
20629 si 16618 TPS Si 20629 1.1 28.085000
20630 ca 16618 TPS CA6 20630 -0.0753 12.010000
20631 ha 16618 TPS HH6 20631 0.1332 1.008000
20632 ca 16618 TPS CA5 20632 -0.1548 12.010000
20633 ha 16618 TPS HA5 20633 0.1282 1.008000
20634 ca 16618 TPS CA4 20634 -0.1028 12.010000
20635 ha 16618 TPS HA4 20635 0.1262 1.008000
20636 ca 16618 TPS CA3 20636 -0.1548 12.010000
20637 ha 16618 TPS HA3 20637 0.1282 1.008000
20638 ha 16619 TPS HA2 20638 0.1332 1.008000
20639 ca 16619 TPS CA2 20639 -0.0753 12.010000
20640 ca 16619 TPS CA1 20640 -0.361 12.010000
20641 si 16619 TPS Si 20641 1.1 28.085000
20642 ca 16619 TPS CA6 20642 -0.0753 12.010000
20643 ha 16619 TPS HH6 20643 0.1332 1.008000
20644 ca 16619 TPS CA5 20644 -0.1548 12.010000
20645 ha 16619 TPS HA5 20645 0.1282 1.008000
20646 ca 16619 TPS CA4 20646 -0.1028 12.010000
20647 ha 16619 TPS HA4 20647 0.1262 1.008000
20648 ca 16619 TPS CA3 20648 -0.1548 12.010000
20649 ha 16619 TPS HA3 20649 0.1282 1.008000
20650 ha 16620 TPS HA2 20650 0.1332 1.008000
20651 ca 16620 TPS CA2 20651 -0.0753 12.010000
20652 ca 16620 TPS CA1 20652 -0.361 12.010000
20653 si 16620 TPS Si 20653 1.1 28.085000
20654 ca 16620 TPS CA6 20654 -0.0753 12.010000
20655 ha 16620 TPS HH6 20655 0.1332 1.008000
20656 ca 16620 TPS CA5 20656 -0.1548 12.010000
20657 ha 16620 TPS HA5 20657 0.1282 1.008000
20658 ca 16620 TPS CA4 20658 -0.1028 12.010000
20659 ha 16620 TPS HA4 20659 0.1262 1.008000
20660 ca 16620 TPS CA3 20660 -0.1548 12.010000
20661 ha 16620 TPS HA3 20661 0.1282 1.008000
20662 ha 16621 TPS HA2 20662 0.1332 1.008000
20663 ca 16621 TPS CA2 20663 -0.0753 12.010000
20664 ca 16621 TPS CA1 20664 -0.361 12.010000
20665 si 16621 TPS Si 20665 1.1 28.085000
20666 ca 16621 TPS CA6 20666 -0.0753 12.010000
20667 ha 16621 TPS HH6 20667 0.1332 1.008000
20668 ca 16621 TPS CA5 20668 -0.1548 12.010000
20669 ha 16621 TPS HA5 20669 0.1282 1.008000
20670 ca 16621 TPS CA4 20670 -0.1028 12.010000
20671 ha 16621 TPS HA4 20671 0.1262 1.008000
20672 ca 16621 TPS CA3 20672 -0.1548 12.010000
20673 ha 16621 TPS HA3 20673 0.1282 1.008000
20674 ha 16622 TPS HA2 20674 0.1332 1.008000
20675 ca 16622 TPS CA2 20675 -0.0753 12.010000
20676 ca 16622 TPS CA1 20676 -0.361 12.010000
20677 si 16622 TPS Si 20677 1.1 28.085000
20678 ca 16622 TPS CA6 20678 -0.0753 12.010000
20679 ha 16622 TPS HH6 20679 0.1332 1.008000
20680 ca 16622 TPS CA5 20680 -0.1548 12.010000
20681 ha 16622 TPS HA5 20681 0.1282 1.008000
20682 ca 16622 TPS CA4 20682 -0.1028 12.010000
20683 ha 16622 TPS HA4 20683 0.1262 1.008000
20684 ca 16622 TPS CA3 20684 -0.1548 12.010000
20685 ha 16622 TPS HA3 20685 0.1282 1.008000
20686 ha 16623 TPS HA2 20686 0.1332 1.008000
20687 ca 16623 TPS CA2 20687 -0.0753 12.010000
20688 ca 16623 TPS CA1 20688 -0.361 12.010000
20689 si 16623 TPS Si 20689 1.1 28.085000
20690 ca 16623 TPS CA6 20690 -0.0753 12.010000
20691 ha 16623 TPS HH6 20691 0.1332 1.008000
20692 ca 16623 TPS CA5 20692 -0.1548 12.010000
20693 ha 16623 TPS HA5 20693 0.1282 1.008000
20694 ca 16623 TPS CA4 20694 -0.1028 12.010000
20695 ha 16623 TPS HA4 20695 0.1262 1.008000
20696 ca 16623 TPS CA3 20696 -0.1548 12.010000
20697 ha 16623 TPS HA3 20697 0.1282 1.008000
20698 ha 16624 TPS HA2 20698 0.1332 1.008000
20699 ca 16624 TPS CA2 20699 -0.0753 12.010000
20700 ca 16624 TPS CA1 20700 -0.361 12.010000
20701 si 16624 TPS Si 20701 1.1 28.085000
20702 ca 16624 TPS CA6 20702 -0.0753 12.010000
20703 ha 16624 TPS HH6 20703 0.1332 1.008000
20704 ca 16624 TPS CA5 20704 -0.1548 12.010000
20705 ha 16624 TPS HA5 20705 0.1282 1.008000
20706 ca 16624 TPS CA4 20706 -0.1028 12.010000
20707 ha 16624 TPS HA4 20707 0.1262 1.008000
20708 ca 16624 TPS CA3 20708 -0.1548 12.010000
20709 ha 16624 TPS HA3 20709 0.1282 1.008000
20710 ha 16625 TPS HA2 20710 0.1332 1.008000
20711 ca 16625 TPS CA2 20711 -0.0753 12.010000
20712 ca 16625 TPS CA1 20712 -0.361 12.010000
20713 si 16625 TPS Si 20713 1.1 28.085000
20714 ca 16625 TPS CA6 20714 -0.0753 12.010000
20715 ha 16625 TPS HH6 20715 0.1332 1.008000
20716 ca 16625 TPS CA5 20716 -0.1548 12.010000
20717 ha 16625 TPS HA5 20717 0.1282 1.008000
20718 ca 16625 TPS CA4 20718 -0.1028 12.010000
20719 ha 16625 TPS HA4 20719 0.1262 1.008000
20720 ca 16625 TPS CA3 20720 -0.1548 12.010000
20721 ha 16625 TPS HA3 20721 0.1282 1.008000
20722 ha 16626 TPS HA2 20722 0.1332 1.008000
20723 ca 16626 TPS CA2 20723 -0.0753 12.010000
20724 ca 16626 TPS CA1 20724 -0.361 12.010000
20725 si 16626 TPS Si 20725 1.1 28.085000
20726 ca 16626 TPS CA6 20726 -0.0753 12.010000
20727 ha 16626 TPS HH6 20727 0.1332 1.008000
20728 ca 16626 TPS CA5 20728 -0.1548 12.010000
20729 ha 16626 TPS HA5 20729 0.1282 1.008000
20730 ca 16626 TPS CA4 20730 -0.1028 12.010000
20731 ha 16626 TPS HA4 20731 0.1262 1.008000
20732 ca 16626 TPS CA3 20732 -0.1548 12.010000
20733 ha 16626 TPS HA3 20733 0.1282 1.008000
20734 ha 16627 TPS HA2 20734 0.1332 1.008000
20735 ca 16627 TPS CA2 20735 -0.0753 12.010000
20736 ca 16627 TPS CA1 20736 -0.361 12.010000
20737 si 16627 TPS Si 20737 1.1 28.085000
20738 ca 16627 TPS CA6 20738 -0.0753 12.010000
20739 ha 16627 TPS HH6 20739 0.1332 1.008000
20740 ca 16627 TPS CA5 20740 -0.1548 12.010000
20741 ha 16627 TPS HA5 20741 0.1282 1.008000
20742 ca 16627 TPS CA4 20742 -0.1028 12.010000
20743 ha 16627 TPS HA4 20743 0.1262 1.008000
20744 ca 16627 TPS CA3 20744 -0.1548 12.010000
20745 ha 16627 TPS HA3 20745 0.1282 1.008000
20746 ha 16628 TPS HA2 20746 0.1332 1.008000
20747 ca 16628 TPS CA2 20747 -0.0753 12.010000
20748 ca 16628 TPS CA1 20748 -0.361 12.010000
20749 si 16628 TPS Si 20749 1.1 28.085000
20750 ca 16628 TPS CA6 20750 -0.0753 12.010000
20751 ha 16628 TPS HH6 20751 0.1332 1.008000
20752 ca 16628 TPS CA5 20752 -0.1548 12.010000
20753 ha 16628 TPS HA5 20753 0.1282 1.008000
20754 ca 16628 TPS CA4 20754 -0.1028 12.010000
20755 ha 16628 TPS HA4 20755 0.1262 1.008000
20756 ca 16628 TPS CA3 20756 -0.1548 12.010000
20757 ha 16628 TPS HA3 20757 0.1282 1.008000
20758 ha 16629 TPS HA2 20758 0.1332 1.008000
20759 ca 16629 TPS CA2 20759 -0.0753 12.010000
20760 ca 16629 TPS CA1 20760 -0.361 12.010000
20761 si 16629 TPS Si 20761 1.1 28.085000
20762 ca 16629 TPS CA6 20762 -0.0753 12.010000
20763 ha 16629 TPS HH6 20763 0.1332 1.008000
20764 ca 16629 TPS CA5 20764 -0.1548 12.010000
20765 ha 16629 TPS HA5 20765 0.1282 1.008000
20766 ca 16629 TPS CA4 20766 -0.1028 12.010000
20767 ha 16629 TPS HA4 20767 0.1262 1.008000
20768 ca 16629 TPS CA3 20768 -0.1548 12.010000
20769 ha 16629 TPS HA3 20769 0.1282 1.008000
20770 ha 16630 TPS HA2 20770 0.1332 1.008000
20771 ca 16630 TPS CA2 20771 -0.0753 12.010000
20772 ca 16630 TPS CA1 20772 -0.361 12.010000
20773 si 16630 TPS Si 20773 1.1 28.085000
20774 ca 16630 TPS CA6 20774 -0.0753 12.010000
20775 ha 16630 TPS HH6 20775 0.1332 1.008000
20776 ca 16630 TPS CA5 20776 -0.1548 12.010000
20777 ha 16630 TPS HA5 20777 0.1282 1.008000
20778 ca 16630 TPS CA4 20778 -0.1028 12.010000
20779 ha 16630 TPS HA4 20779 0.1262 1.008000
20780 ca 16630 TPS CA3 20780 -0.1548 12.010000
20781 ha 16630 TPS HA3 20781 0.1282 1.008000
20782 ha 16631 TPS HA2 20782 0.1332 1.008000
20783 ca 16631 TPS CA2 20783 -0.0753 12.010000
20784 ca 16631 TPS CA1 20784 -0.361 12.010000
20785 si 16631 TPS Si 20785 1.1 28.085000
20786 ca 16631 TPS CA6 20786 -0.0753 12.010000
20787 ha 16631 TPS HH6 20787 0.1332 1.008000
20788 ca 16631 TPS CA5 20788 -0.1548 12.010000
20789 ha 16631 TPS HA5 20789 0.1282 1.008000
20790 ca 16631 TPS CA4 20790 -0.1028 12.010000
20791 ha 16631 TPS HA4 20791 0.1262 1.008000
20792 ca 16631 TPS CA3 20792 -0.1548 12.010000
20793 ha 16631 TPS HA3 20793 0.1282 1.008000
20794 ha 16632 TPS HA2 20794 0.1332 1.008000
20795 ca 16632 TPS CA2 20795 -0.0753 12.010000
20796 ca 16632 TPS CA1 20796 -0.361 12.010000
20797 si 16632 TPS Si 20797 1.1 28.085000
20798 ca 16632 TPS CA6 20798 -0.0753 12.010000
20799 ha 16632 TPS HH6 20799 0.1332 1.008000
20800 ca 16632 TPS CA5 20800 -0.1548 12.010000
20801 ha 16632 TPS HA5 20801 0.1282 1.008000
20802 ca 16632 TPS CA4 20802 -0.1028 12.010000
20803 ha 16632 TPS HA4 20803 0.1262 1.008000
20804 ca 16632 TPS CA3 20804 -0.1548 12.010000
20805 ha 16632 TPS HA3 20805 0.1282 1.008000
20806 ha 16633 TPS HA2 20806 0.1332 1.008000
20807 ca 16633 TPS CA2 20807 -0.0753 12.010000
20808 ca 16633 TPS CA1 20808 -0.361 12.010000
20809 si 16633 TPS Si 20809 1.1 28.085000
20810 ca 16633 TPS CA6 20810 -0.0753 12.010000
20811 ha 16633 TPS HH6 20811 0.1332 1.008000
20812 ca 16633 TPS CA5 20812 -0.1548 12.010000
20813 ha 16633 TPS HA5 20813 0.1282 1.008000
20814 ca 16633 TPS CA4 20814 -0.1028 12.010000
20815 ha 16633 TPS HA4 20815 0.1262 1.008000
20816 ca 16633 TPS CA3 20816 -0.1548 12.010000
20817 ha 16633 TPS HA3 20817 0.1282 1.008000
20818 ha 16634 TPS HA2 20818 0.1332 1.008000
20819 ca 16634 TPS CA2 20819 -0.0753 12.010000
20820 ca 16634 TPS CA1 20820 -0.361 12.010000
20821 si 16634 TPS Si 20821 1.1 28.085000
20822 ca 16634 TPS CA6 20822 -0.0753 12.010000
20823 ha 16634 TPS HH6 20823 0.1332 1.008000
20824 ca 16634 TPS CA5 20824 -0.1548 12.010000
20825 ha 16634 TPS HA5 20825 0.1282 1.008000
20826 ca 16634 TPS CA4 20826 -0.1028 12.010000
20827 ha 16634 TPS HA4 20827 0.1262 1.008000
20828 ca 16634 TPS CA3 20828 -0.1548 12.010000
20829 ha 16634 TPS HA3 20829 0.1282 1.008000
20830 ha 16635 TPS HA2 20830 0.1332 1.008000
20831 ca 16635 TPS CA2 20831 -0.0753 12.010000
20832 ca 16635 TPS CA1 20832 -0.361 12.010000
20833 si 16635 TPS Si 20833 1.1 28.085000
20834 ca 16635 TPS CA6 20834 -0.0753 12.010000
20835 ha 16635 TPS HH6 20835 0.1332 1.008000
20836 ca 16635 TPS CA5 20836 -0.1548 12.010000
20837 ha 16635 TPS HA5 20837 0.1282 1.008000
20838 ca 16635 TPS CA4 20838 -0.1028 12.010000
20839 ha 16635 TPS HA4 20839 0.1262 1.008000
20840 ca 16635 TPS CA3 20840 -0.1548 12.010000
20841 ha 16635 TPS HA3 20841 0.1282 1.008000
20842 ha 16636 TPS HA2 20842 0.1332 1.008000
20843 ca 16636 TPS CA2 20843 -0.0753 12.010000
20844 ca 16636 TPS CA1 20844 -0.361 12.010000
20845 si 16636 TPS Si 20845 1.1 28.085000
20846 ca 16636 TPS CA6 20846 -0.0753 12.010000
20847 ha 16636 TPS HH6 20847 0.1332 1.008000
20848 ca 16636 TPS CA5 20848 -0.1548 12.010000
20849 ha 16636 TPS HA5 20849 0.1282 1.008000
20850 ca 16636 TPS CA4 20850 -0.1028 12.010000
20851 ha 16636 TPS HA4 20851 0.1262 1.008000
20852 ca 16636 TPS CA3 20852 -0.1548 12.010000
20853 ha 16636 TPS HA3 20853 0.1282 1.008000
20854 ha 16637 TPS HA2 20854 0.1332 1.008000
20855 ca 16637 TPS CA2 20855 -0.0753 12.010000
20856 ca 16637 TPS CA1 20856 -0.361 12.010000
20857 si 16637 TPS Si 20857 1.1 28.085000
20858 ca 16637 TPS CA6 20858 -0.0753 12.010000
20859 ha 16637 TPS HH6 20859 0.1332 1.008000
20860 ca 16637 TPS CA5 20860 -0.1548 12.010000
20861 ha 16637 TPS HA5 20861 0.1282 1.008000
20862 ca 16637 TPS CA4 20862 -0.1028 12.010000
20863 ha 16637 TPS HA4 20863 0.1262 1.008000
20864 ca 16637 TPS CA3 20864 -0.1548 12.010000
20865 ha 16637 TPS HA3 20865 0.1282 1.008000
20866 ha 16638 TPS HA2 20866 0.1332 1.008000
20867 ca 16638 TPS CA2 20867 -0.0753 12.010000
20868 ca 16638 TPS CA1 20868 -0.361 12.010000
20869 si 16638 TPS Si 20869 1.1 28.085000
20870 ca 16638 TPS CA6 20870 -0.0753 12.010000
20871 ha 16638 TPS HH6 20871 0.1332 1.008000
20872 ca 16638 TPS CA5 20872 -0.1548 12.010000
20873 ha 16638 TPS HA5 20873 0.1282 1.008000
20874 ca 16638 TPS CA4 20874 -0.1028 12.010000
20875 ha 16638 TPS HA4 20875 0.1262 1.008000
20876 ca 16638 TPS CA3 20876 -0.1548 12.010000
20877 ha 16638 TPS HA3 20877 0.1282 1.008000
20878 ha 16639 TPS HA2 20878 0.1332 1.008000
20879 ca 16639 TPS CA2 20879 -0.0753 12.010000
20880 ca 16639 TPS CA1 20880 -0.361 12.010000
20881 si 16639 TPS Si 20881 1.1 28.085000
20882 ca 16639 TPS CA6 20882 -0.0753 12.010000
20883 ha 16639 TPS HH6 20883 0.1332 1.008000
20884 ca 16639 TPS CA5 20884 -0.1548 12.010000
20885 ha 16639 TPS HA5 20885 0.1282 1.008000
20886 ca 16639 TPS CA4 20886 -0.1028 12.010000
20887 ha 16639 TPS HA4 20887 0.1262 1.008000
20888 ca 16639 TPS CA3 20888 -0.1548 12.010000
20889 ha 16639 TPS HA3 20889 0.1282 1.008000
20890 ha 16640 TPS HA2 20890 0.1332 1.008000
20891 ca 16640 TPS CA2 20891 -0.0753 12.010000
20892 ca 16640 TPS CA1 20892 -0.361 12.010000
20893 si 16640 TPS Si 20893 1.1 28.085000
20894 ca 16640 TPS CA6 20894 -0.0753 12.010000
20895 ha 16640 TPS HH6 20895 0.1332 1.008000
20896 ca 16640 TPS CA5 20896 -0.1548 12.010000
20897 ha 16640 TPS HA5 20897 0.1282 1.008000
20898 ca 16640 TPS CA4 20898 -0.1028 12.010000
20899 ha 16640 TPS HA4 20899 0.1262 1.008000
20900 ca 16640 TPS CA3 20900 -0.1548 12.010000
20901 ha 16640 TPS HA3 20901 0.1282 1.008000
20902 ha 16641 TPS HA2 20902 0.1332 1.008000
20903 ca 16641 TPS CA2 20903 -0.0753 12.010000
20904 ca 16641 TPS CA1 20904 -0.361 12.010000
20905 si 16641 TPS Si 20905 1.1 28.085000
20906 ca 16641 TPS CA6 20906 -0.0753 12.010000
20907 ha 16641 TPS HH6 20907 0.1332 1.008000
20908 ca 16641 TPS CA5 20908 -0.1548 12.010000
20909 ha 16641 TPS HA5 20909 0.1282 1.008000
20910 ca 16641 TPS CA4 20910 -0.1028 12.010000
20911 ha 16641 TPS HA4 20911 0.1262 1.008000
20912 ca 16641 TPS CA3 20912 -0.1548 12.010000
20913 ha 16641 TPS HA3 20913 0.1282 1.008000
20914 ha 16642 TPS HA2 20914 0.1332 1.008000
20915 ca 16642 TPS CA2 20915 -0.0753 12.010000
20916 ca 16642 TPS CA1 20916 -0.361 12.010000
20917 si 16642 TPS Si 20917 1.1 28.085000
20918 ca 16642 TPS CA6 20918 -0.0753 12.010000
20919 ha 16642 TPS HH6 20919 0.1332 1.008000
20920 ca 16642 TPS CA5 20920 -0.1548 12.010000
20921 ha 16642 TPS HA5 20921 0.1282 1.008000
20922 ca 16642 TPS CA4 20922 -0.1028 12.010000
20923 ha 16642 TPS HA4 20923 0.1262 1.008000
20924 ca 16642 TPS CA3 20924 -0.1548 12.010000
20925 ha 16642 TPS HA3 20925 0.1282 1.008000
20926 ha 16643 TPS HA2 20926 0.1332 1.008000
20927 ca 16643 TPS CA2 20927 -0.0753 12.010000
20928 ca 16643 TPS CA1 20928 -0.361 12.010000
20929 si 16643 TPS Si 20929 1.1 28.085000
20930 ca 16643 TPS CA6 20930 -0.0753 12.010000
20931 ha 16643 TPS HH6 20931 0.1332 1.008000
20932 ca 16643 TPS CA5 20932 -0.1548 12.010000
20933 ha 16643 TPS HA5 20933 0.1282 1.008000
20934 ca 16643 TPS CA4 20934 -0.1028 12.010000
20935 ha 16643 TPS HA4 20935 0.1262 1.008000
20936 ca 16643 TPS CA3 20936 -0.1548 12.010000
20937 ha 16643 TPS HA3 20937 0.1282 1.008000
20938 ha 16644 TPS HA2 20938 0.1332 1.008000
20939 ca 16644 TPS CA2 20939 -0.0753 12.010000
20940 ca 16644 TPS CA1 20940 -0.361 12.010000
20941 si 16644 TPS Si 20941 1.1 28.085000
20942 ca 16644 TPS CA6 20942 -0.0753 12.010000
20943 ha 16644 TPS HH6 20943 0.1332 1.008000
20944 ca 16644 TPS CA5 20944 -0.1548 12.010000
20945 ha 16644 TPS HA5 20945 0.1282 1.008000
20946 ca 16644 TPS CA4 20946 -0.1028 12.010000
20947 ha 16644 TPS HA4 20947 0.1262 1.008000
20948 ca 16644 TPS CA3 20948 -0.1548 12.010000
20949 ha 16644 TPS HA3 20949 0.1282 1.008000
20950 ha 16645 TPS HA2 20950 0.1332 1.008000
20951 ca 16645 TPS CA2 20951 -0.0753 12.010000
20952 ca 16645 TPS CA1 20952 -0.361 12.010000
20953 si 16645 TPS Si 20953 1.1 28.085000
20954 ca 16645 TPS CA6 20954 -0.0753 12.010000
20955 ha 16645 TPS HH6 20955 0.1332 1.008000
20956 ca 16645 TPS CA5 20956 -0.1548 12.010000
20957 ha 16645 TPS HA5 20957 0.1282 1.008000
20958 ca 16645 TPS CA4 20958 -0.1028 12.010000
20959 ha 16645 TPS HA4 20959 0.1262 1.008000
20960 ca 16645 TPS CA3 20960 -0.1548 12.010000
20961 ha 16645 TPS HA3 20961 0.1282 1.008000
20962 ha 16646 TPS HA2 20962 0.1332 1.008000
20963 ca 16646 TPS CA2 20963 -0.0753 12.010000
20964 ca 16646 TPS CA1 20964 -0.361 12.010000
20965 si 16646 TPS Si 20965 1.1 28.085000
20966 ca 16646 TPS CA6 20966 -0.0753 12.010000
20967 ha 16646 TPS HH6 20967 0.1332 1.008000
20968 ca 16646 TPS CA5 20968 -0.1548 12.010000
20969 ha 16646 TPS HA5 20969 0.1282 1.008000
20970 ca 16646 TPS CA4 20970 -0.1028 12.010000
20971 ha 16646 TPS HA4 20971 0.1262 1.008000
20972 ca 16646 TPS CA3 20972 -0.1548 12.010000
20973 ha 16646 TPS HA3 20973 0.1282 1.008000
20974 ha 16647 TPS HA2 20974 0.1332 1.008000
20975 ca 16647 TPS CA2 20975 -0.0753 12.010000
20976 ca 16647 TPS CA1 20976 -0.361 12.010000
20977 si 16647 TPS Si 20977 1.1 28.085000
20978 ca 16647 TPS CA6 20978 -0.0753 12.010000
20979 ha 16647 TPS HH6 20979 0.1332 1.008000
20980 ca 16647 TPS CA5 20980 -0.1548 12.010000
20981 ha 16647 TPS HA5 20981 0.1282 1.008000
20982 ca 16647 TPS CA4 20982 -0.1028 12.010000
20983 ha 16647 TPS HA4 20983 0.1262 1.008000
20984 ca 16647 TPS CA3 20984 -0.1548 12.010000
20985 ha 16647 TPS HA3 20985 0.1282 1.008000
20986 ha 16648 TPS HA2 20986 0.1332 1.008000
20987 ca 16648 TPS CA2 20987 -0.0753 12.010000
20988 ca 16648 TPS CA1 20988 -0.361 12.010000
20989 si 16648 TPS Si 20989 1.1 28.085000
20990 ca 16648 TPS CA6 20990 -0.0753 12.010000
20991 ha 16648 TPS HH6 20991 0.1332 1.008000
20992 ca 16648 TPS CA5 20992 -0.1548 12.010000
20993 ha 16648 TPS HA5 20993 0.1282 1.008000
20994 ca 16648 TPS CA4 20994 -0.1028 12.010000
20995 ha 16648 TPS HA4 20995 0.1262 1.008000
20996 ca 16648 TPS CA3 20996 -0.1548 12.010000
20997 ha 16648 TPS HA3 20997 0.1282 1.008000
20998 ha 16649 TPS HA2 20998 0.1332 1.008000
20999 ca 16649 TPS CA2 20999 -0.0753 12.010000
21000 ca 16649 TPS CA1 21000 -0.361 12.010000
21001 si 16649 TPS Si 21001 1.1 28.085000
21002 ca 16649 TPS CA6 21002 -0.0753 12.010000
21003 ha 16649 TPS HH6 21003 0.1332 1.008000
21004 ca 16649 TPS CA5 21004 -0.1548 12.010000
21005 ha 16649 TPS HA5 21005 0.1282 1.008000
21006 ca 16649 TPS CA4 21006 -0.1028 12.010000
21007 ha 16649 TPS HA4 21007 0.1262 1.008000
21008 ca 16649 TPS CA3 21008 -0.1548 12.010000
21009 ha 16649 TPS HA3 21009 0.1282 1.008000
21010 ha 16650 TPS HA2 21010 0.1332 1.008000
21011 ca 16650 TPS CA2 21011 -0.0753 12.010000
21012 ca 16650 TPS CA1 21012 -0.361 12.010000
21013 si 16650 TPS Si 21013 1.1 28.085000
21014 ca 16650 TPS CA6 21014 -0.0753 12.010000
21015 ha 16650 TPS HH6 21015 0.1332 1.008000
21016 ca 16650 TPS CA5 21016 -0.1548 12.010000
21017 ha 16650 TPS HA5 21017 0.1282 1.008000
21018 ca 16650 TPS CA4 21018 -0.1028 12.010000
21019 ha 16650 TPS HA4 21019 0.1262 1.008000
21020 ca 16650 TPS CA3 21020 -0.1548 12.010000
21021 ha 16650 TPS HA3 21021 0.1282 1.008000
21022 ha 16651 TPS HA2 21022 0.1332 1.008000
21023 ca 16651 TPS CA2 21023 -0.0753 12.010000
21024 ca 16651 TPS CA1 21024 -0.361 12.010000
21025 si 16651 TPS Si 21025 1.1 28.085000
21026 ca 16651 TPS CA6 21026 -0.0753 12.010000
21027 ha 16651 TPS HH6 21027 0.1332 1.008000
21028 ca 16651 TPS CA5 21028 -0.1548 12.010000
21029 ha 16651 TPS HA5 21029 0.1282 1.008000
21030 ca 16651 TPS CA4 21030 -0.1028 12.010000
21031 ha 16651 TPS HA4 21031 0.1262 1.008000
21032 ca 16651 TPS CA3 21032 -0.1548 12.010000
21033 ha 16651 TPS HA3 21033 0.1282 1.008000
21034 ha 16652 TPS HA2 21034 0.1332 1.008000
21035 ca 16652 TPS CA2 21035 -0.0753 12.010000
21036 ca 16652 TPS CA1 21036 -0.361 12.010000
21037 si 16652 TPS Si 21037 1.1 28.085000
21038 ca 16652 TPS CA6 21038 -0.0753 12.010000
21039 ha 16652 TPS HH6 21039 0.1332 1.008000
21040 ca 16652 TPS CA5 21040 -0.1548 12.010000
21041 ha 16652 TPS HA5 21041 0.1282 1.008000
21042 ca 16652 TPS CA4 21042 -0.1028 12.010000
21043 ha 16652 TPS HA4 21043 0.1262 1.008000
21044 ca 16652 TPS CA3 21044 -0.1548 12.010000
21045 ha 16652 TPS HA3 21045 0.1282 1.008000
21046 ha 16653 TPS HA2 21046 0.1332 1.008000
21047 ca 16653 TPS CA2 21047 -0.0753 12.010000
21048 ca 16653 TPS CA1 21048 -0.361 12.010000
21049 si 16653 TPS Si 21049 1.1 28.085000
21050 ca 16653 TPS CA6 21050 -0.0753 12.010000
21051 ha 16653 TPS HH6 21051 0.1332 1.008000
21052 ca 16653 TPS CA5 21052 -0.1548 12.010000
21053 ha 16653 TPS HA5 21053 0.1282 1.008000
21054 ca 16653 TPS CA4 21054 -0.1028 12.010000
21055 ha 16653 TPS HA4 21055 0.1262 1.008000
21056 ca 16653 TPS CA3 21056 -0.1548 12.010000
21057 ha 16653 TPS HA3 21057 0.1282 1.008000
21058 ha 16654 TPS HA2 21058 0.1332 1.008000
21059 ca 16654 TPS CA2 21059 -0.0753 12.010000
21060 ca 16654 TPS CA1 21060 -0.361 12.010000
21061 si 16654 TPS Si 21061 1.1 28.085000
21062 ca 16654 TPS CA6 21062 -0.0753 12.010000
21063 ha 16654 TPS HH6 21063 0.1332 1.008000
21064 ca 16654 TPS CA5 21064 -0.1548 12.010000
21065 ha 16654 TPS HA5 21065 0.1282 1.008000
21066 ca 16654 TPS CA4 21066 -0.1028 12.010000
21067 ha 16654 TPS HA4 21067 0.1262 1.008000
21068 ca 16654 TPS CA3 21068 -0.1548 12.010000
21069 ha 16654 TPS HA3 21069 0.1282 1.008000
21070 ha 16655 TPS HA2 21070 0.1332 1.008000
21071 ca 16655 TPS CA2 21071 -0.0753 12.010000
21072 ca 16655 TPS CA1 21072 -0.361 12.010000
21073 si 16655 TPS Si 21073 1.1 28.085000
21074 ca 16655 TPS CA6 21074 -0.0753 12.010000
21075 ha 16655 TPS HH6 21075 0.1332 1.008000
21076 ca 16655 TPS CA5 21076 -0.1548 12.010000
21077 ha 16655 TPS HA5 21077 0.1282 1.008000
21078 ca 16655 TPS CA4 21078 -0.1028 12.010000
21079 ha 16655 TPS HA4 21079 0.1262 1.008000
21080 ca 16655 TPS CA3 21080 -0.1548 12.010000
21081 ha 16655 TPS HA3 21081 0.1282 1.008000
21082 ha 16656 TPS HA2 21082 0.1332 1.008000
21083 ca 16656 TPS CA2 21083 -0.0753 12.010000
21084 ca 16656 TPS CA1 21084 -0.361 12.010000
21085 si 16656 TPS Si 21085 1.1 28.085000
21086 ca 16656 TPS CA6 21086 -0.0753 12.010000
21087 ha 16656 TPS HH6 21087 0.1332 1.008000
21088 ca 16656 TPS CA5 21088 -0.1548 12.010000
21089 ha 16656 TPS HA5 21089 0.1282 1.008000
21090 ca 16656 TPS CA4 21090 -0.1028 12.010000
21091 ha 16656 TPS HA4 21091 0.1262 1.008000
21092 ca 16656 TPS CA3 21092 -0.1548 12.010000
21093 ha 16656 TPS HA3 21093 0.1282 1.008000
21094 ha 16657 TPS HA2 21094 0.1332 1.008000
21095 ca 16657 TPS CA2 21095 -0.0753 12.010000
21096 ca 16657 TPS CA1 21096 -0.361 12.010000
21097 si 16657 TPS Si 21097 1.1 28.085000
21098 ca 16657 TPS CA6 21098 -0.0753 12.010000
21099 ha 16657 TPS HH6 21099 0.1332 1.008000
21100 ca 16657 TPS CA5 21100 -0.1548 12.010000
21101 ha 16657 TPS HA5 21101 0.1282 1.008000
21102 ca 16657 TPS CA4 21102 -0.1028 12.010000
21103 ha 16657 TPS HA4 21103 0.1262 1.008000
21104 ca 16657 TPS CA3 21104 -0.1548 12.010000
21105 ha 16657 TPS HA3 21105 0.1282 1.008000
21106 ha 16658 TPS HA2 21106 0.1332 1.008000
21107 ca 16658 TPS CA2 21107 -0.0753 12.010000
21108 ca 16658 TPS CA1 21108 -0.361 12.010000
21109 si 16658 TPS Si 21109 1.1 28.085000
21110 ca 16658 TPS CA6 21110 -0.0753 12.010000
21111 ha 16658 TPS HH6 21111 0.1332 1.008000
21112 ca 16658 TPS CA5 21112 -0.1548 12.010000
21113 ha 16658 TPS HA5 21113 0.1282 1.008000
21114 ca 16658 TPS CA4 21114 -0.1028 12.010000
21115 ha 16658 TPS HA4 21115 0.1262 1.008000
21116 ca 16658 TPS CA3 21116 -0.1548 12.010000
21117 ha 16658 TPS HA3 21117 0.1282 1.008000
21118 ha 16659 TPS HA2 21118 0.1332 1.008000
21119 ca 16659 TPS CA2 21119 -0.0753 12.010000
21120 ca 16659 TPS CA1 21120 -0.361 12.010000
21121 si 16659 TPS Si 21121 1.1 28.085000
21122 ca 16659 TPS CA6 21122 -0.0753 12.010000
21123 ha 16659 TPS HH6 21123 0.1332 1.008000
21124 ca 16659 TPS CA5 21124 -0.1548 12.010000
21125 ha 16659 TPS HA5 21125 0.1282 1.008000
21126 ca 16659 TPS CA4 21126 -0.1028 12.010000
21127 ha 16659 TPS HA4 21127 0.1262 1.008000
21128 ca 16659 TPS CA3 21128 -0.1548 12.010000
21129 ha 16659 TPS HA3 21129 0.1282 1.008000
21130 ha 16660 TPS HA2 21130 0.1332 1.008000
21131 ca 16660 TPS CA2 21131 -0.0753 12.010000
21132 ca 16660 TPS CA1 21132 -0.361 12.010000
21133 si 16660 TPS Si 21133 1.1 28.085000
21134 ca 16660 TPS CA6 21134 -0.0753 12.010000
21135 ha 16660 TPS HH6 21135 0.1332 1.008000
21136 ca 16660 TPS CA5 21136 -0.1548 12.010000
21137 ha 16660 TPS HA5 21137 0.1282 1.008000
21138 ca 16660 TPS CA4 21138 -0.1028 12.010000
21139 ha 16660 TPS HA4 21139 0.1262 1.008000
21140 ca 16660 TPS CA3 21140 -0.1548 12.010000
21141 ha 16660 TPS HA3 21141 0.1282 1.008000
21142 ha 16661 TPS HA2 21142 0.1332 1.008000
21143 ca 16661 TPS CA2 21143 -0.0753 12.010000
21144 ca 16661 TPS CA1 21144 -0.361 12.010000
21145 si 16661 TPS Si 21145 1.1 28.085000
21146 ca 16661 TPS CA6 21146 -0.0753 12.010000
21147 ha 16661 TPS HH6 21147 0.1332 1.008000
21148 ca 16661 TPS CA5 21148 -0.1548 12.010000
21149 ha 16661 TPS HA5 21149 0.1282 1.008000
21150 ca 16661 TPS CA4 21150 -0.1028 12.010000
21151 ha 16661 TPS HA4 21151 0.1262 1.008000
21152 ca 16661 TPS CA3 21152 -0.1548 12.010000
21153 ha 16661 TPS HA3 21153 0.1282 1.008000
21154 ha 16662 TPS HA2 21154 0.1332 1.008000
21155 ca 16662 TPS CA2 21155 -0.0753 12.010000
21156 ca 16662 TPS CA1 21156 -0.361 12.010000
21157 si 16662 TPS Si 21157 1.1 28.085000
21158 ca 16662 TPS CA6 21158 -0.0753 12.010000
21159 ha 16662 TPS HH6 21159 0.1332 1.008000
21160 ca 16662 TPS CA5 21160 -0.1548 12.010000
21161 ha 16662 TPS HA5 21161 0.1282 1.008000
21162 ca 16662 TPS CA4 21162 -0.1028 12.010000
21163 ha 16662 TPS HA4 21163 0.1262 1.008000
21164 ca 16662 TPS CA3 21164 -0.1548 12.010000
21165 ha 16662 TPS HA3 21165 0.1282 1.008000
21166 ha 16663 TPS HA2 21166 0.1332 1.008000
21167 ca 16663 TPS CA2 21167 -0.0753 12.010000
21168 ca 16663 TPS CA1 21168 -0.361 12.010000
21169 si 16663 TPS Si 21169 1.1 28.085000
21170 ca 16663 TPS CA6 21170 -0.0753 12.010000
21171 ha 16663 TPS HH6 21171 0.1332 1.008000
21172 ca 16663 TPS CA5 21172 -0.1548 12.010000
21173 ha 16663 TPS HA5 21173 0.1282 1.008000
21174 ca 16663 TPS CA4 21174 -0.1028 12.010000
21175 ha 16663 TPS HA4 21175 0.1262 1.008000
21176 ca 16663 TPS CA3 21176 -0.1548 12.010000
21177 ha 16663 TPS HA3 21177 0.1282 1.008000
21178 ha 16664 TPS HA2 21178 0.1332 1.008000
21179 ca 16664 TPS CA2 21179 -0.0753 12.010000
21180 ca 16664 TPS CA1 21180 -0.361 12.010000
21181 si 16664 TPS Si 21181 1.1 28.085000
21182 ca 16664 TPS CA6 21182 -0.0753 12.010000
21183 ha 16664 TPS HH6 21183 0.1332 1.008000
21184 ca 16664 TPS CA5 21184 -0.1548 12.010000
21185 ha 16664 TPS HA5 21185 0.1282 1.008000
21186 ca 16664 TPS CA4 21186 -0.1028 12.010000
21187 ha 16664 TPS HA4 21187 0.1262 1.008000
21188 ca 16664 TPS CA3 21188 -0.1548 12.010000
21189 ha 16664 TPS HA3 21189 0.1282 1.008000
21190 ha 16665 TPS HA2 21190 0.1332 1.008000
21191 ca 16665 TPS CA2 21191 -0.0753 12.010000
21192 ca 16665 TPS CA1 21192 -0.361 12.010000
21193 si 16665 TPS Si 21193 1.1 28.085000
21194 ca 16665 TPS CA6 21194 -0.0753 12.010000
21195 ha 16665 TPS HH6 21195 0.1332 1.008000
21196 ca 16665 TPS CA5 21196 -0.1548 12.010000
21197 ha 16665 TPS HA5 21197 0.1282 1.008000
21198 ca 16665 TPS CA4 21198 -0.1028 12.010000
21199 ha 16665 TPS HA4 21199 0.1262 1.008000
21200 ca 16665 TPS CA3 21200 -0.1548 12.010000
21201 ha 16665 TPS HA3 21201 0.1282 1.008000
21202 ha 16666 TPS HA2 21202 0.1332 1.008000
21203 ca 16666 TPS CA2 21203 -0.0753 12.010000
21204 ca 16666 TPS CA1 21204 -0.361 12.010000
21205 si 16666 TPS Si 21205 1.1 28.085000
21206 ca 16666 TPS CA6 21206 -0.0753 12.010000
21207 ha 16666 TPS HH6 21207 0.1332 1.008000
21208 ca 16666 TPS CA5 21208 -0.1548 12.010000
21209 ha 16666 TPS HA5 21209 0.1282 1.008000
21210 ca 16666 TPS CA4 21210 -0.1028 12.010000
21211 ha 16666 TPS HA4 21211 0.1262 1.008000
21212 ca 16666 TPS CA3 21212 -0.1548 12.010000
21213 ha 16666 TPS HA3 21213 0.1282 1.008000
21214 ha 16667 TPS HA2 21214 0.1332 1.008000
21215 ca 16667 TPS CA2 21215 -0.0753 12.010000
21216 ca 16667 TPS CA1 21216 -0.361 12.010000
21217 si 16667 TPS Si 21217 1.1 28.085000
21218 ca 16667 TPS CA6 21218 -0.0753 12.010000
21219 ha 16667 TPS HH6 21219 0.1332 1.008000
21220 ca 16667 TPS CA5 21220 -0.1548 12.010000
21221 ha 16667 TPS HA5 21221 0.1282 1.008000
21222 ca 16667 TPS CA4 21222 -0.1028 12.010000
21223 ha 16667 TPS HA4 21223 0.1262 1.008000
21224 ca 16667 TPS CA3 21224 -0.1548 12.010000
21225 ha 16667 TPS HA3 21225 0.1282 1.008000
21226 ha 16668 TPS HA2 21226 0.1332 1.008000
21227 ca 16668 TPS CA2 21227 -0.0753 12.010000
21228 ca 16668 TPS CA1 21228 -0.361 12.010000
21229 si 16668 TPS Si 21229 1.1 28.085000
21230 ca 16668 TPS CA6 21230 -0.0753 12.010000
21231 ha 16668 TPS HH6 21231 0.1332 1.008000
21232 ca 16668 TPS CA5 21232 -0.1548 12.010000
21233 ha 16668 TPS HA5 21233 0.1282 1.008000
21234 ca 16668 TPS CA4 21234 -0.1028 12.010000
21235 ha 16668 TPS HA4 21235 0.1262 1.008000
21236 ca 16668 TPS CA3 21236 -0.1548 12.010000
21237 ha 16668 TPS HA3 21237 0.1282 1.008000
21238 ha 16669 TPS HA2 21238 0.1332 1.008000
21239 ca 16669 TPS CA2 21239 -0.0753 12.010000
21240 ca 16669 TPS CA1 21240 -0.361 12.010000
21241 si 16669 TPS Si 21241 1.1 28.085000
21242 ca 16669 TPS CA6 21242 -0.0753 12.010000
21243 ha 16669 TPS HH6 21243 0.1332 1.008000
21244 ca 16669 TPS CA5 21244 -0.1548 12.010000
21245 ha 16669 TPS HA5 21245 0.1282 1.008000
21246 ca 16669 TPS CA4 21246 -0.1028 12.010000
21247 ha 16669 TPS HA4 21247 0.1262 1.008000
21248 ca 16669 TPS CA3 21248 -0.1548 12.010000
21249 ha 16669 TPS HA3 21249 0.1282 1.008000
21250 ha 16670 TPS HA2 21250 0.1332 1.008000
21251 ca 16670 TPS CA2 21251 -0.0753 12.010000
21252 ca 16670 TPS CA1 21252 -0.361 12.010000
21253 si 16670 TPS Si 21253 1.1 28.085000
21254 ca 16670 TPS CA6 21254 -0.0753 12.010000
21255 ha 16670 TPS HH6 21255 0.1332 1.008000
21256 ca 16670 TPS CA5 21256 -0.1548 12.010000
21257 ha 16670 TPS HA5 21257 0.1282 1.008000
21258 ca 16670 TPS CA4 21258 -0.1028 12.010000
21259 ha 16670 TPS HA4 21259 0.1262 1.008000
21260 ca 16670 TPS CA3 21260 -0.1548 12.010000
21261 ha 16670 TPS HA3 21261 0.1282 1.008000
21262 ha 16671 TPS HA2 21262 0.1332 1.008000
21263 ca 16671 TPS CA2 21263 -0.0753 12.010000
21264 ca 16671 TPS CA1 21264 -0.361 12.010000
21265 si 16671 TPS Si 21265 1.1 28.085000
21266 ca 16671 TPS CA6 21266 -0.0753 12.010000
21267 ha 16671 TPS HH6 21267 0.1332 1.008000
21268 ca 16671 TPS CA5 21268 -0.1548 12.010000
21269 ha 16671 TPS HA5 21269 0.1282 1.008000
21270 ca 16671 TPS CA4 21270 -0.1028 12.010000
21271 ha 16671 TPS HA4 21271 0.1262 1.008000
21272 ca 16671 TPS CA3 21272 -0.1548 12.010000
21273 ha 16671 TPS HA3 21273 0.1282 1.008000
21274 ha 16672 TPS HA2 21274 0.1332 1.008000
21275 ca 16672 TPS CA2 21275 -0.0753 12.010000
21276 ca 16672 TPS CA1 21276 -0.361 12.010000
21277 si 16672 TPS Si 21277 1.1 28.085000
21278 ca 16672 TPS CA6 21278 -0.0753 12.010000
21279 ha 16672 TPS HH6 21279 0.1332 1.008000
21280 ca 16672 TPS CA5 21280 -0.1548 12.010000
21281 ha 16672 TPS HA5 21281 0.1282 1.008000
21282 ca 16672 TPS CA4 21282 -0.1028 12.010000
21283 ha 16672 TPS HA4 21283 0.1262 1.008000
21284 ca 16672 TPS CA3 21284 -0.1548 12.010000
21285 ha 16672 TPS HA3 21285 0.1282 1.008000
21286 ha 16673 TPS HA2 21286 0.1332 1.008000
21287 ca 16673 TPS CA2 21287 -0.0753 12.010000
21288 ca 16673 TPS CA1 21288 -0.361 12.010000
21289 si 16673 TPS Si 21289 1.1 28.085000
21290 ca 16673 TPS CA6 21290 -0.0753 12.010000
21291 ha 16673 TPS HH6 21291 0.1332 1.008000
21292 ca 16673 TPS CA5 21292 -0.1548 12.010000
21293 ha 16673 TPS HA5 21293 0.1282 1.008000
21294 ca 16673 TPS CA4 21294 -0.1028 12.010000
21295 ha 16673 TPS HA4 21295 0.1262 1.008000
21296 ca 16673 TPS CA3 21296 -0.1548 12.010000
21297 ha 16673 TPS HA3 21297 0.1282 1.008000
21298 ha 16674 TPS HA2 21298 0.1332 1.008000
21299 ca 16674 TPS CA2 21299 -0.0753 12.010000
21300 ca 16674 TPS CA1 21300 -0.361 12.010000
21301 si 16674 TPS Si 21301 1.1 28.085000
21302 ca 16674 TPS CA6 21302 -0.0753 12.010000
21303 ha 16674 TPS HH6 21303 0.1332 1.008000
21304 ca 16674 TPS CA5 21304 -0.1548 12.010000
21305 ha 16674 TPS HA5 21305 0.1282 1.008000
21306 ca 16674 TPS CA4 21306 -0.1028 12.010000
21307 ha 16674 TPS HA4 21307 0.1262 1.008000
21308 ca 16674 TPS CA3 21308 -0.1548 12.010000
21309 ha 16674 TPS HA3 21309 0.1282 1.008000
21310 ha 16675 TPS HA2 21310 0.1332 1.008000
21311 ca 16675 TPS CA2 21311 -0.0753 12.010000
21312 ca 16675 TPS CA1 21312 -0.361 12.010000
21313 si 16675 TPS Si 21313 1.1 28.085000
21314 ca 16675 TPS CA6 21314 -0.0753 12.010000
21315 ha 16675 TPS HH6 21315 0.1332 1.008000
21316 ca 16675 TPS CA5 21316 -0.1548 12.010000
21317 ha 16675 TPS HA5 21317 0.1282 1.008000
21318 ca 16675 TPS CA4 21318 -0.1028 12.010000
21319 ha 16675 TPS HA4 21319 0.1262 1.008000
21320 ca 16675 TPS CA3 21320 -0.1548 12.010000
21321 ha 16675 TPS HA3 21321 0.1282 1.008000
21322 ha 16676 TPS HA2 21322 0.1332 1.008000
21323 ca 16676 TPS CA2 21323 -0.0753 12.010000
21324 ca 16676 TPS CA1 21324 -0.361 12.010000
21325 si 16676 TPS Si 21325 1.1 28.085000
21326 ca 16676 TPS CA6 21326 -0.0753 12.010000
21327 ha 16676 TPS HH6 21327 0.1332 1.008000
21328 ca 16676 TPS CA5 21328 -0.1548 12.010000
21329 ha 16676 TPS HA5 21329 0.1282 1.008000
21330 ca 16676 TPS CA4 21330 -0.1028 12.010000
21331 ha 16676 TPS HA4 21331 0.1262 1.008000
21332 ca 16676 TPS CA3 21332 -0.1548 12.010000
21333 ha 16676 TPS HA3 21333 0.1282 1.008000
21334 ha 16677 TPS HA2 21334 0.1332 1.008000
21335 ca 16677 TPS CA2 21335 -0.0753 12.010000
21336 ca 16677 TPS CA1 21336 -0.361 12.010000
21337 si 16677 TPS Si 21337 1.1 28.085000
21338 ca 16677 TPS CA6 21338 -0.0753 12.010000
21339 ha 16677 TPS HH6 21339 0.1332 1.008000
21340 ca 16677 TPS CA5 21340 -0.1548 12.010000
21341 ha 16677 TPS HA5 21341 0.1282 1.008000
21342 ca 16677 TPS CA4 21342 -0.1028 12.010000
21343 ha 16677 TPS HA4 21343 0.1262 1.008000
21344 ca 16677 TPS CA3 21344 -0.1548 12.010000
21345 ha 16677 TPS HA3 21345 0.1282 1.008000
21346 ha 16678 TPS HA2 21346 0.1332 1.008000
21347 ca 16678 TPS CA2 21347 -0.0753 12.010000
21348 ca 16678 TPS CA1 21348 -0.361 12.010000
21349 si 16678 TPS Si 21349 1.1 28.085000
21350 ca 16678 TPS CA6 21350 -0.0753 12.010000
21351 ha 16678 TPS HH6 21351 0.1332 1.008000
21352 ca 16678 TPS CA5 21352 -0.1548 12.010000
21353 ha 16678 TPS HA5 21353 0.1282 1.008000
21354 ca 16678 TPS CA4 21354 -0.1028 12.010000
21355 ha 16678 TPS HA4 21355 0.1262 1.008000
21356 ca 16678 TPS CA3 21356 -0.1548 12.010000
21357 ha 16678 TPS HA3 21357 0.1282 1.008000
21358 ha 16679 TPS HA2 21358 0.1332 1.008000
21359 ca 16679 TPS CA2 21359 -0.0753 12.010000
21360 ca 16679 TPS CA1 21360 -0.361 12.010000
21361 si 16679 TPS Si 21361 1.1 28.085000
21362 ca 16679 TPS CA6 21362 -0.0753 12.010000
21363 ha 16679 TPS HH6 21363 0.1332 1.008000
21364 ca 16679 TPS CA5 21364 -0.1548 12.010000
21365 ha 16679 TPS HA5 21365 0.1282 1.008000
21366 ca 16679 TPS CA4 21366 -0.1028 12.010000
21367 ha 16679 TPS HA4 21367 0.1262 1.008000
21368 ca 16679 TPS CA3 21368 -0.1548 12.010000
21369 ha 16679 TPS HA3 21369 0.1282 1.008000
21370 ha 16680 TPS HA2 21370 0.1332 1.008000
21371 ca 16680 TPS CA2 21371 -0.0753 12.010000
21372 ca 16680 TPS CA1 21372 -0.361 12.010000
21373 si 16680 TPS Si 21373 1.1 28.085000
21374 ca 16680 TPS CA6 21374 -0.0753 12.010000
21375 ha 16680 TPS HH6 21375 0.1332 1.008000
21376 ca 16680 TPS CA5 21376 -0.1548 12.010000
21377 ha 16680 TPS HA5 21377 0.1282 1.008000
21378 ca 16680 TPS CA4 21378 -0.1028 12.010000
21379 ha 16680 TPS HA4 21379 0.1262 1.008000
21380 ca 16680 TPS CA3 21380 -0.1548 12.010000
21381 ha 16680 TPS HA3 21381 0.1282 1.008000
21382 ha 16681 TPS HA2 21382 0.1332 1.008000
21383 ca 16681 TPS CA2 21383 -0.0753 12.010000
21384 ca 16681 TPS CA1 21384 -0.361 12.010000
21385 si 16681 TPS Si 21385 1.1 28.085000
21386 ca 16681 TPS CA6 21386 -0.0753 12.010000
21387 ha 16681 TPS HH6 21387 0.1332 1.008000
21388 ca 16681 TPS CA5 21388 -0.1548 12.010000
21389 ha 16681 TPS HA5 21389 0.1282 1.008000
21390 ca 16681 TPS CA4 21390 -0.1028 12.010000
21391 ha 16681 TPS HA4 21391 0.1262 1.008000
21392 ca 16681 TPS CA3 21392 -0.1548 12.010000
21393 ha 16681 TPS HA3 21393 0.1282 1.008000
21394 ha 16682 TPS HA2 21394 0.1332 1.008000
21395 ca 16682 TPS CA2 21395 -0.0753 12.010000
21396 ca 16682 TPS CA1 21396 -0.361 12.010000
21397 si 16682 TPS Si 21397 1.1 28.085000
21398 ca 16682 TPS CA6 21398 -0.0753 12.010000
21399 ha 16682 TPS HH6 21399 0.1332 1.008000
21400 ca 16682 TPS CA5 21400 -0.1548 12.010000
21401 ha 16682 TPS HA5 21401 0.1282 1.008000
21402 ca 16682 TPS CA4 21402 -0.1028 12.010000
21403 ha 16682 TPS HA4 21403 0.1262 1.008000
21404 ca 16682 TPS CA3 21404 -0.1548 12.010000
21405 ha 16682 TPS HA3 21405 0.1282 1.008000
21406 ha 16683 TPS HA2 21406 0.1332 1.008000
21407 ca 16683 TPS CA2 21407 -0.0753 12.010000
21408 ca 16683 TPS CA1 21408 -0.361 12.010000
21409 si 16683 TPS Si 21409 1.1 28.085000
21410 ca 16683 TPS CA6 21410 -0.0753 12.010000
21411 ha 16683 TPS HH6 21411 0.1332 1.008000
21412 ca 16683 TPS CA5 21412 -0.1548 12.010000
21413 ha 16683 TPS HA5 21413 0.1282 1.008000
21414 ca 16683 TPS CA4 21414 -0.1028 12.010000
21415 ha 16683 TPS HA4 21415 0.1262 1.008000
21416 ca 16683 TPS CA3 21416 -0.1548 12.010000
21417 ha 16683 TPS HA3 21417 0.1282 1.008000
21418 ha 16684 TPS HA2 21418 0.1332 1.008000
21419 ca 16684 TPS CA2 21419 -0.0753 12.010000
21420 ca 16684 TPS CA1 21420 -0.361 12.010000
21421 si 16684 TPS Si 21421 1.1 28.085000
21422 ca 16684 TPS CA6 21422 -0.0753 12.010000
21423 ha 16684 TPS HH6 21423 0.1332 1.008000
21424 ca 16684 TPS CA5 21424 -0.1548 12.010000
21425 ha 16684 TPS HA5 21425 0.1282 1.008000
21426 ca 16684 TPS CA4 21426 -0.1028 12.010000
21427 ha 16684 TPS HA4 21427 0.1262 1.008000
21428 ca 16684 TPS CA3 21428 -0.1548 12.010000
21429 ha 16684 TPS HA3 21429 0.1282 1.008000
21430 ha 16685 TPS HA2 21430 0.1332 1.008000
21431 ca 16685 TPS CA2 21431 -0.0753 12.010000
21432 ca 16685 TPS CA1 21432 -0.361 12.010000
21433 si 16685 TPS Si 21433 1.1 28.085000
21434 ca 16685 TPS CA6 21434 -0.0753 12.010000
21435 ha 16685 TPS HH6 21435 0.1332 1.008000
21436 ca 16685 TPS CA5 21436 -0.1548 12.010000
21437 ha 16685 TPS HA5 21437 0.1282 1.008000
21438 ca 16685 TPS CA4 21438 -0.1028 12.010000
21439 ha 16685 TPS HA4 21439 0.1262 1.008000
21440 ca 16685 TPS CA3 21440 -0.1548 12.010000
21441 ha 16685 TPS HA3 21441 0.1282 1.008000
21442 ha 16686 TPS HA2 21442 0.1332 1.008000
21443 ca 16686 TPS CA2 21443 -0.0753 12.010000
21444 ca 16686 TPS CA1 21444 -0.361 12.010000
21445 si 16686 TPS Si 21445 1.1 28.085000
21446 ca 16686 TPS CA6 21446 -0.0753 12.010000
21447 ha 16686 TPS HH6 21447 0.1332 1.008000
21448 ca 16686 TPS CA5 21448 -0.1548 12.010000
21449 ha 16686 TPS HA5 21449 0.1282 1.008000
21450 ca 16686 TPS CA4 21450 -0.1028 12.010000
21451 ha 16686 TPS HA4 21451 0.1262 1.008000
21452 ca 16686 TPS CA3 21452 -0.1548 12.010000
21453 ha 16686 TPS HA3 21453 0.1282 1.008000
21454 ha 16687 TPS HA2 21454 0.1332 1.008000
21455 ca 16687 TPS CA2 21455 -0.0753 12.010000
21456 ca 16687 TPS CA1 21456 -0.361 12.010000
21457 si 16687 TPS Si 21457 1.1 28.085000
21458 ca 16687 TPS CA6 21458 -0.0753 12.010000
21459 ha 16687 TPS HH6 21459 0.1332 1.008000
21460 ca 16687 TPS CA5 21460 -0.1548 12.010000
21461 ha 16687 TPS HA5 21461 0.1282 1.008000
21462 ca 16687 TPS CA4 21462 -0.1028 12.010000
21463 ha 16687 TPS HA4 21463 0.1262 1.008000
21464 ca 16687 TPS CA3 21464 -0.1548 12.010000
21465 ha 16687 TPS HA3 21465 0.1282 1.008000
21466 ha 16688 TPS HA2 21466 0.1332 1.008000
21467 ca 16688 TPS CA2 21467 -0.0753 12.010000
21468 ca 16688 TPS CA1 21468 -0.361 12.010000
21469 si 16688 TPS Si 21469 1.1 28.085000
21470 ca 16688 TPS CA6 21470 -0.0753 12.010000
21471 ha 16688 TPS HH6 21471 0.1332 1.008000
21472 ca 16688 TPS CA5 21472 -0.1548 12.010000
21473 ha 16688 TPS HA5 21473 0.1282 1.008000
21474 ca 16688 TPS CA4 21474 -0.1028 12.010000
21475 ha 16688 TPS HA4 21475 0.1262 1.008000
21476 ca 16688 TPS CA3 21476 -0.1548 12.010000
21477 ha 16688 TPS HA3 21477 0.1282 1.008000
21478 ha 16689 TPS HA2 21478 0.1332 1.008000
21479 ca 16689 TPS CA2 21479 -0.0753 12.010000
21480 ca 16689 TPS CA1 21480 -0.361 12.010000
21481 si 16689 TPS Si 21481 1.1 28.085000
21482 ca 16689 TPS CA6 21482 -0.0753 12.010000
21483 ha 16689 TPS HH6 21483 0.1332 1.008000
21484 ca 16689 TPS CA5 21484 -0.1548 12.010000
21485 ha 16689 TPS HA5 21485 0.1282 1.008000
21486 ca 16689 TPS CA4 21486 -0.1028 12.010000
21487 ha 16689 TPS HA4 21487 0.1262 1.008000
21488 ca 16689 TPS CA3 21488 -0.1548 12.010000
21489 ha 16689 TPS HA3 21489 0.1282 1.008000
21490 ha 16690 TPS HA2 21490 0.1332 1.008000
21491 ca 16690 TPS CA2 21491 -0.0753 12.010000
21492 ca 16690 TPS CA1 21492 -0.361 12.010000
21493 si 16690 TPS Si 21493 1.1 28.085000
21494 ca 16690 TPS CA6 21494 -0.0753 12.010000
21495 ha 16690 TPS HH6 21495 0.1332 1.008000
21496 ca 16690 TPS CA5 21496 -0.1548 12.010000
21497 ha 16690 TPS HA5 21497 0.1282 1.008000
21498 ca 16690 TPS CA4 21498 -0.1028 12.010000
21499 ha 16690 TPS HA4 21499 0.1262 1.008000
21500 ca 16690 TPS CA3 21500 -0.1548 12.010000
21501 ha 16690 TPS HA3 21501 0.1282 1.008000
21502 ha 16691 TPS HA2 21502 0.1332 1.008000
21503 ca 16691 TPS CA2 21503 -0.0753 12.010000
21504 ca 16691 TPS CA1 21504 -0.361 12.010000
21505 si 16691 TPS Si 21505 1.1 28.085000
21506 ca 16691 TPS CA6 21506 -0.0753 12.010000
21507 ha 16691 TPS HH6 21507 0.1332 1.008000
21508 ca 16691 TPS CA5 21508 -0.1548 12.010000
21509 ha 16691 TPS HA5 21509 0.1282 1.008000
21510 ca 16691 TPS CA4 21510 -0.1028 12.010000
21511 ha 16691 TPS HA4 21511 0.1262 1.008000
21512 ca 16691 TPS CA3 21512 -0.1548 12.010000
21513 ha 16691 TPS HA3 21513 0.1282 1.008000
21514 ha 16692 TPS HA2 21514 0.1332 1.008000
21515 ca 16692 TPS CA2 21515 -0.0753 12.010000
21516 ca 16692 TPS CA1 21516 -0.361 12.010000
21517 si 16692 TPS Si 21517 1.1 28.085000
21518 ca 16692 TPS CA6 21518 -0.0753 12.010000
21519 ha 16692 TPS HH6 21519 0.1332 1.008000
21520 ca 16692 TPS CA5 21520 -0.1548 12.010000
21521 ha 16692 TPS HA5 21521 0.1282 1.008000
21522 ca 16692 TPS CA4 21522 -0.1028 12.010000
21523 ha 16692 TPS HA4 21523 0.1262 1.008000
21524 ca 16692 TPS CA3 21524 -0.1548 12.010000
21525 ha 16692 TPS HA3 21525 0.1282 1.008000
21526 ha 16693 TPS HA2 21526 0.1332 1.008000
21527 ca 16693 TPS CA2 21527 -0.0753 12.010000
21528 ca 16693 TPS CA1 21528 -0.361 12.010000
21529 si 16693 TPS Si 21529 1.1 28.085000
21530 ca 16693 TPS CA6 21530 -0.0753 12.010000
21531 ha 16693 TPS HH6 21531 0.1332 1.008000
21532 ca 16693 TPS CA5 21532 -0.1548 12.010000
21533 ha 16693 TPS HA5 21533 0.1282 1.008000
21534 ca 16693 TPS CA4 21534 -0.1028 12.010000
21535 ha 16693 TPS HA4 21535 0.1262 1.008000
21536 ca 16693 TPS CA3 21536 -0.1548 12.010000
21537 ha 16693 TPS HA3 21537 0.1282 1.008000
21538 ha 16694 TPS HA2 21538 0.1332 1.008000
21539 ca 16694 TPS CA2 21539 -0.0753 12.010000
21540 ca 16694 TPS CA1 21540 -0.361 12.010000
21541 si 16694 TPS Si 21541 1.1 28.085000
21542 ca 16694 TPS CA6 21542 -0.0753 12.010000
21543 ha 16694 TPS HH6 21543 0.1332 1.008000
21544 ca 16694 TPS CA5 21544 -0.1548 12.010000
21545 ha 16694 TPS HA5 21545 0.1282 1.008000
21546 ca 16694 TPS CA4 21546 -0.1028 12.010000
21547 ha 16694 TPS HA4 21547 0.1262 1.008000
21548 ca 16694 TPS CA3 21548 -0.1548 12.010000
21549 ha 16694 TPS HA3 21549 0.1282 1.008000
21550 ha 16695 TPS HA2 21550 0.1332 1.008000
21551 ca 16695 TPS CA2 21551 -0.0753 12.010000
21552 ca 16695 TPS CA1 21552 -0.361 12.010000
21553 si 16695 TPS Si 21553 1.1 28.085000
21554 ca 16695 TPS CA6 21554 -0.0753 12.010000
21555 ha 16695 TPS HH6 21555 0.1332 1.008000
21556 ca 16695 TPS CA5 21556 -0.1548 12.010000
21557 ha 16695 TPS HA5 21557 0.1282 1.008000
21558 ca 16695 TPS CA4 21558 -0.1028 12.010000
21559 ha 16695 TPS HA4 21559 0.1262 1.008000
21560 ca 16695 TPS CA3 21560 -0.1548 12.010000
21561 ha 16695 TPS HA3 21561 0.1282 1.008000
21562 ha 16696 TPS HA2 21562 0.1332 1.008000
21563 ca 16696 TPS CA2 21563 -0.0753 12.010000
21564 ca 16696 TPS CA1 21564 -0.361 12.010000
21565 si 16696 TPS Si 21565 1.1 28.085000
21566 ca 16696 TPS CA6 21566 -0.0753 12.010000
21567 ha 16696 TPS HH6 21567 0.1332 1.008000
21568 ca 16696 TPS CA5 21568 -0.1548 12.010000
21569 ha 16696 TPS HA5 21569 0.1282 1.008000
21570 ca 16696 TPS CA4 21570 -0.1028 12.010000
21571 ha 16696 TPS HA4 21571 0.1262 1.008000
21572 ca 16696 TPS CA3 21572 -0.1548 12.010000
21573 ha 16696 TPS HA3 21573 0.1282 1.008000
21574 ha 16697 TPS HA2 21574 0.1332 1.008000
21575 ca 16697 TPS CA2 21575 -0.0753 12.010000
21576 ca 16697 TPS CA1 21576 -0.361 12.010000
21577 si 16697 TPS Si 21577 1.1 28.085000
21578 ca 16697 TPS CA6 21578 -0.0753 12.010000
21579 ha 16697 TPS HH6 21579 0.1332 1.008000
21580 ca 16697 TPS CA5 21580 -0.1548 12.010000
21581 ha 16697 TPS HA5 21581 0.1282 1.008000
21582 ca 16697 TPS CA4 21582 -0.1028 12.010000
21583 ha 16697 TPS HA4 21583 0.1262 1.008000
21584 ca 16697 TPS CA3 21584 -0.1548 12.010000
21585 ha 16697 TPS HA3 21585 0.1282 1.008000
21586 ha 16698 TPS HA2 21586 0.1332 1.008000
21587 ca 16698 TPS CA2 21587 -0.0753 12.010000
21588 ca 16698 TPS CA1 21588 -0.361 12.010000
21589 si 16698 TPS Si 21589 1.1 28.085000
21590 ca 16698 TPS CA6 21590 -0.0753 12.010000
21591 ha 16698 TPS HH6 21591 0.1332 1.008000
21592 ca 16698 TPS CA5 21592 -0.1548 12.010000
21593 ha 16698 TPS HA5 21593 0.1282 1.008000
21594 ca 16698 TPS CA4 21594 -0.1028 12.010000
21595 ha 16698 TPS HA4 21595 0.1262 1.008000
21596 ca 16698 TPS CA3 21596 -0.1548 12.010000
21597 ha 16698 TPS HA3 21597 0.1282 1.008000
21598 ha 16699 TPS HA2 21598 0.1332 1.008000
21599 ca 16699 TPS CA2 21599 -0.0753 12.010000
21600 ca 16699 TPS CA1 21600 -0.361 12.010000
21601 si 16699 TPS Si 21601 1.1 28.085000
21602 ca 16699 TPS CA6 21602 -0.0753 12.010000
21603 ha 16699 TPS HH6 21603 0.1332 1.008000
21604 ca 16699 TPS CA5 21604 -0.1548 12.010000
21605 ha 16699 TPS HA5 21605 0.1282 1.008000
21606 ca 16699 TPS CA4 21606 -0.1028 12.010000
21607 ha 16699 TPS HA4 21607 0.1262 1.008000
21608 ca 16699 TPS CA3 21608 -0.1548 12.010000
21609 ha 16699 TPS HA3 21609 0.1282 1.008000
21610 ha 16700 TPS HA2 21610 0.1332 1.008000
21611 ca 16700 TPS CA2 21611 -0.0753 12.010000
21612 ca 16700 TPS CA1 21612 -0.361 12.010000
21613 si 16700 TPS Si 21613 1.1 28.085000
21614 ca 16700 TPS CA6 21614 -0.0753 12.010000
21615 ha 16700 TPS HH6 21615 0.1332 1.008000
21616 ca 16700 TPS CA5 21616 -0.1548 12.010000
21617 ha 16700 TPS HA5 21617 0.1282 1.008000
21618 ca 16700 TPS CA4 21618 -0.1028 12.010000
21619 ha 16700 TPS HA4 21619 0.1262 1.008000
21620 ca 16700 TPS CA3 21620 -0.1548 12.010000
21621 ha 16700 TPS HA3 21621 0.1282 1.008000
21622 ha 16701 TPS HA2 21622 0.1332 1.008000
21623 ca 16701 TPS CA2 21623 -0.0753 12.010000
21624 ca 16701 TPS CA1 21624 -0.361 12.010000
21625 si 16701 TPS Si 21625 1.1 28.085000
21626 ca 16701 TPS CA6 21626 -0.0753 12.010000
21627 ha 16701 TPS HH6 21627 0.1332 1.008000
21628 ca 16701 TPS CA5 21628 -0.1548 12.010000
21629 ha 16701 TPS HA5 21629 0.1282 1.008000
21630 ca 16701 TPS CA4 21630 -0.1028 12.010000
21631 ha 16701 TPS HA4 21631 0.1262 1.008000
21632 ca 16701 TPS CA3 21632 -0.1548 12.010000
21633 ha 16701 TPS HA3 21633 0.1282 1.008000
21634 ha 16702 TPS HA2 21634 0.1332 1.008000
21635 ca 16702 TPS CA2 21635 -0.0753 12.010000
21636 ca 16702 TPS CA1 21636 -0.361 12.010000
21637 si 16702 TPS Si 21637 1.1 28.085000
21638 ca 16702 TPS CA6 21638 -0.0753 12.010000
21639 ha 16702 TPS HH6 21639 0.1332 1.008000
21640 ca 16702 TPS CA5 21640 -0.1548 12.010000
21641 ha 16702 TPS HA5 21641 0.1282 1.008000
21642 ca 16702 TPS CA4 21642 -0.1028 12.010000
21643 ha 16702 TPS HA4 21643 0.1262 1.008000
21644 ca 16702 TPS CA3 21644 -0.1548 12.010000
21645 ha 16702 TPS HA3 21645 0.1282 1.008000
21646 ha 16703 TPS HA2 21646 0.1332 1.008000
21647 ca 16703 TPS CA2 21647 -0.0753 12.010000
21648 ca 16703 TPS CA1 21648 -0.361 12.010000
21649 si 16703 TPS Si 21649 1.1 28.085000
21650 ca 16703 TPS CA6 21650 -0.0753 12.010000
21651 ha 16703 TPS HH6 21651 0.1332 1.008000
21652 ca 16703 TPS CA5 21652 -0.1548 12.010000
21653 ha 16703 TPS HA5 21653 0.1282 1.008000
21654 ca 16703 TPS CA4 21654 -0.1028 12.010000
21655 ha 16703 TPS HA4 21655 0.1262 1.008000
21656 ca 16703 TPS CA3 21656 -0.1548 12.010000
21657 ha 16703 TPS HA3 21657 0.1282 1.008000
21658 ha 16704 TPS HA2 21658 0.1332 1.008000
21659 ca 16704 TPS CA2 21659 -0.0753 12.010000
21660 ca 16704 TPS CA1 21660 -0.361 12.010000
21661 si 16704 TPS Si 21661 1.1 28.085000
21662 ca 16704 TPS CA6 21662 -0.0753 12.010000
21663 ha 16704 TPS HH6 21663 0.1332 1.008000
21664 ca 16704 TPS CA5 21664 -0.1548 12.010000
21665 ha 16704 TPS HA5 21665 0.1282 1.008000
21666 ca 16704 TPS CA4 21666 -0.1028 12.010000
21667 ha 16704 TPS HA4 21667 0.1262 1.008000
21668 ca 16704 TPS CA3 21668 -0.1548 12.010000
21669 ha 16704 TPS HA3 21669 0.1282 1.008000
21670 ha 16705 TPS HA2 21670 0.1332 1.008000
21671 ca 16705 TPS CA2 21671 -0.0753 12.010000
21672 ca 16705 TPS CA1 21672 -0.361 12.010000
21673 si 16705 TPS Si 21673 1.1 28.085000
21674 ca 16705 TPS CA6 21674 -0.0753 12.010000
21675 ha 16705 TPS HH6 21675 0.1332 1.008000
21676 ca 16705 TPS CA5 21676 -0.1548 12.010000
21677 ha 16705 TPS HA5 21677 0.1282 1.008000
21678 ca 16705 TPS CA4 21678 -0.1028 12.010000
21679 ha 16705 TPS HA4 21679 0.1262 1.008000
21680 ca 16705 TPS CA3 21680 -0.1548 12.010000
21681 ha 16705 TPS HA3 21681 0.1282 1.008000
21682 ha 16706 TPS HA2 21682 0.1332 1.008000
21683 ca 16706 TPS CA2 21683 -0.0753 12.010000
21684 ca 16706 TPS CA1 21684 -0.361 12.010000
21685 si 16706 TPS Si 21685 1.1 28.085000
21686 ca 16706 TPS CA6 21686 -0.0753 12.010000
21687 ha 16706 TPS HH6 21687 0.1332 1.008000
21688 ca 16706 TPS CA5 21688 -0.1548 12.010000
21689 ha 16706 TPS HA5 21689 0.1282 1.008000
21690 ca 16706 TPS CA4 21690 -0.1028 12.010000
21691 ha 16706 TPS HA4 21691 0.1262 1.008000
21692 ca 16706 TPS CA3 21692 -0.1548 12.010000
21693 ha 16706 TPS HA3 21693 0.1282 1.008000
21694 ha 16707 TPS HA2 21694 0.1332 1.008000
21695 ca 16707 TPS CA2 21695 -0.0753 12.010000
21696 ca 16707 TPS CA1 21696 -0.361 12.010000
21697 si 16707 TPS Si 21697 1.1 28.085000
21698 ca 16707 TPS CA6 21698 -0.0753 12.010000
21699 ha 16707 TPS HH6 21699 0.1332 1.008000
21700 ca 16707 TPS CA5 21700 -0.1548 12.010000
21701 ha 16707 TPS HA5 21701 0.1282 1.008000
21702 ca 16707 TPS CA4 21702 -0.1028 12.010000
21703 ha 16707 TPS HA4 21703 0.1262 1.008000
21704 ca 16707 TPS CA3 21704 -0.1548 12.010000
21705 ha 16707 TPS HA3 21705 0.1282 1.008000
21706 ha 16708 TPS HA2 21706 0.1332 1.008000
21707 ca 16708 TPS CA2 21707 -0.0753 12.010000
21708 ca 16708 TPS CA1 21708 -0.361 12.010000
21709 si 16708 TPS Si 21709 1.1 28.085000
21710 ca 16708 TPS CA6 21710 -0.0753 12.010000
21711 ha 16708 TPS HH6 21711 0.1332 1.008000
21712 ca 16708 TPS CA5 21712 -0.1548 12.010000
21713 ha 16708 TPS HA5 21713 0.1282 1.008000
21714 ca 16708 TPS CA4 21714 -0.1028 12.010000
21715 ha 16708 TPS HA4 21715 0.1262 1.008000
21716 ca 16708 TPS CA3 21716 -0.1548 12.010000
21717 ha 16708 TPS HA3 21717 0.1282 1.008000
21718 ha 16709 TPS HA2 21718 0.1332 1.008000
21719 ca 16709 TPS CA2 21719 -0.0753 12.010000
21720 ca 16709 TPS CA1 21720 -0.361 12.010000
21721 si 16709 TPS Si 21721 1.1 28.085000
21722 ca 16709 TPS CA6 21722 -0.0753 12.010000
21723 ha 16709 TPS HH6 21723 0.1332 1.008000
21724 ca 16709 TPS CA5 21724 -0.1548 12.010000
21725 ha 16709 TPS HA5 21725 0.1282 1.008000
21726 ca 16709 TPS CA4 21726 -0.1028 12.010000
21727 ha 16709 TPS HA4 21727 0.1262 1.008000
21728 ca 16709 TPS CA3 21728 -0.1548 12.010000
21729 ha 16709 TPS HA3 21729 0.1282 1.008000
21730 ha 16710 TPS HA2 21730 0.1332 1.008000
21731 ca 16710 TPS CA2 21731 -0.0753 12.010000
21732 ca 16710 TPS CA1 21732 -0.361 12.010000
21733 si 16710 TPS Si 21733 1.1 28.085000
21734 ca 16710 TPS CA6 21734 -0.0753 12.010000
21735 ha 16710 TPS HH6 21735 0.1332 1.008000
21736 ca 16710 TPS CA5 21736 -0.1548 12.010000
21737 ha 16710 TPS HA5 21737 0.1282 1.008000
21738 ca 16710 TPS CA4 21738 -0.1028 12.010000
21739 ha 16710 TPS HA4 21739 0.1262 1.008000
21740 ca 16710 TPS CA3 21740 -0.1548 12.010000
21741 ha 16710 TPS HA3 21741 0.1282 1.008000
21742 ha 16711 TPS HA2 21742 0.1332 1.008000
21743 ca 16711 TPS CA2 21743 -0.0753 12.010000
21744 ca 16711 TPS CA1 21744 -0.361 12.010000
21745 si 16711 TPS Si 21745 1.1 28.085000
21746 ca 16711 TPS CA6 21746 -0.0753 12.010000
21747 ha 16711 TPS HH6 21747 0.1332 1.008000
21748 ca 16711 TPS CA5 21748 -0.1548 12.010000
21749 ha 16711 TPS HA5 21749 0.1282 1.008000
21750 ca 16711 TPS CA4 21750 -0.1028 12.010000
21751 ha 16711 TPS HA4 21751 0.1262 1.008000
21752 ca 16711 TPS CA3 21752 -0.1548 12.010000
21753 ha 16711 TPS HA3 21753 0.1282 1.008000
21754 ha 16712 TPS HA2 21754 0.1332 1.008000
21755 ca 16712 TPS CA2 21755 -0.0753 12.010000
21756 ca 16712 TPS CA1 21756 -0.361 12.010000
21757 si 16712 TPS Si 21757 1.1 28.085000
21758 ca 16712 TPS CA6 21758 -0.0753 12.010000
21759 ha 16712 TPS HH6 21759 0.1332 1.008000
21760 ca 16712 TPS CA5 21760 -0.1548 12.010000
21761 ha 16712 TPS HA5 21761 0.1282 1.008000
21762 ca 16712 TPS CA4 21762 -0.1028 12.010000
21763 ha 16712 TPS HA4 21763 0.1262 1.008000
21764 ca 16712 TPS CA3 21764 -0.1548 12.010000
21765 ha 16712 TPS HA3 21765 0.1282 1.008000
21766 ha 16713 TPS HA2 21766 0.1332 1.008000
21767 ca 16713 TPS CA2 21767 -0.0753 12.010000
21768 ca 16713 TPS CA1 21768 -0.361 12.010000
21769 si 16713 TPS Si 21769 1.1 28.085000
21770 ca 16713 TPS CA6 21770 -0.0753 12.010000
21771 ha 16713 TPS HH6 21771 0.1332 1.008000
21772 ca 16713 TPS CA5 21772 -0.1548 12.010000
21773 ha 16713 TPS HA5 21773 0.1282 1.008000
21774 ca 16713 TPS CA4 21774 -0.1028 12.010000
21775 ha 16713 TPS HA4 21775 0.1262 1.008000
21776 ca 16713 TPS CA3 21776 -0.1548 12.010000
21777 ha 16713 TPS HA3 21777 0.1282 1.008000
21778 ha 16714 TPS HA2 21778 0.1332 1.008000
21779 ca 16714 TPS CA2 21779 -0.0753 12.010000
21780 ca 16714 TPS CA1 21780 -0.361 12.010000
21781 si 16714 TPS Si 21781 1.1 28.085000
21782 ca 16714 TPS CA6 21782 -0.0753 12.010000
21783 ha 16714 TPS HH6 21783 0.1332 1.008000
21784 ca 16714 TPS CA5 21784 -0.1548 12.010000
21785 ha 16714 TPS HA5 21785 0.1282 1.008000
21786 ca 16714 TPS CA4 21786 -0.1028 12.010000
21787 ha 16714 TPS HA4 21787 0.1262 1.008000
21788 ca 16714 TPS CA3 21788 -0.1548 12.010000
21789 ha 16714 TPS HA3 21789 0.1282 1.008000
21790 ha 16715 TPS HA2 21790 0.1332 1.008000
21791 ca 16715 TPS CA2 21791 -0.0753 12.010000
21792 ca 16715 TPS CA1 21792 -0.361 12.010000
21793 si 16715 TPS Si 21793 1.1 28.085000
21794 ca 16715 TPS CA6 21794 -0.0753 12.010000
21795 ha 16715 TPS HH6 21795 0.1332 1.008000
21796 ca 16715 TPS CA5 21796 -0.1548 12.010000
21797 ha 16715 TPS HA5 21797 0.1282 1.008000
21798 ca 16715 TPS CA4 21798 -0.1028 12.010000
21799 ha 16715 TPS HA4 21799 0.1262 1.008000
21800 ca 16715 TPS CA3 21800 -0.1548 12.010000
21801 ha 16715 TPS HA3 21801 0.1282 1.008000
21802 ha 16716 TPS HA2 21802 0.1332 1.008000
21803 ca 16716 TPS CA2 21803 -0.0753 12.010000
21804 ca 16716 TPS CA1 21804 -0.361 12.010000
21805 si 16716 TPS Si 21805 1.1 28.085000
21806 ca 16716 TPS CA6 21806 -0.0753 12.010000
21807 ha 16716 TPS HH6 21807 0.1332 1.008000
21808 ca 16716 TPS CA5 21808 -0.1548 12.010000
21809 ha 16716 TPS HA5 21809 0.1282 1.008000
21810 ca 16716 TPS CA4 21810 -0.1028 12.010000
21811 ha 16716 TPS HA4 21811 0.1262 1.008000
21812 ca 16716 TPS CA3 21812 -0.1548 12.010000
21813 ha 16716 TPS HA3 21813 0.1282 1.008000
21814 ha 16717 TPS HA2 21814 0.1332 1.008000
21815 ca 16717 TPS CA2 21815 -0.0753 12.010000
21816 ca 16717 TPS CA1 21816 -0.361 12.010000
21817 si 16717 TPS Si 21817 1.1 28.085000
21818 ca 16717 TPS CA6 21818 -0.0753 12.010000
21819 ha 16717 TPS HH6 21819 0.1332 1.008000
21820 ca 16717 TPS CA5 21820 -0.1548 12.010000
21821 ha 16717 TPS HA5 21821 0.1282 1.008000
21822 ca 16717 TPS CA4 21822 -0.1028 12.010000
21823 ha 16717 TPS HA4 21823 0.1262 1.008000
21824 ca 16717 TPS CA3 21824 -0.1548 12.010000
21825 ha 16717 TPS HA3 21825 0.1282 1.008000
21826 ha 16718 TPS HA2 21826 0.1332 1.008000
21827 ca 16718 TPS CA2 21827 -0.0753 12.010000
21828 ca 16718 TPS CA1 21828 -0.361 12.010000
21829 si 16718 TPS Si 21829 1.1 28.085000
21830 ca 16718 TPS CA6 21830 -0.0753 12.010000
21831 ha 16718 TPS HH6 21831 0.1332 1.008000
21832 ca 16718 TPS CA5 21832 -0.1548 12.010000
21833 ha 16718 TPS HA5 21833 0.1282 1.008000
21834 ca 16718 TPS CA4 21834 -0.1028 12.010000
21835 ha 16718 TPS HA4 21835 0.1262 1.008000
21836 ca 16718 TPS CA3 21836 -0.1548 12.010000
21837 ha 16718 TPS HA3 21837 0.1282 1.008000
21838 ha 16719 TPS HA2 21838 0.1332 1.008000
21839 ca 16719 TPS CA2 21839 -0.0753 12.010000
21840 ca 16719 TPS CA1 21840 -0.361 12.010000
21841 si 16719 TPS Si 21841 1.1 28.085000
21842 ca 16719 TPS CA6 21842 -0.0753 12.010000
21843 ha 16719 TPS HH6 21843 0.1332 1.008000
21844 ca 16719 TPS CA5 21844 -0.1548 12.010000
21845 ha 16719 TPS HA5 21845 0.1282 1.008000
21846 ca 16719 TPS CA4 21846 -0.1028 12.010000
21847 ha 16719 TPS HA4 21847 0.1262 1.008000
21848 ca 16719 TPS CA3 21848 -0.1548 12.010000
21849 ha 16719 TPS HA3 21849 0.1282 1.008000
21850 ha 16720 TPS HA2 21850 0.1332 1.008000
21851 ca 16720 TPS CA2 21851 -0.0753 12.010000
21852 ca 16720 TPS CA1 21852 -0.361 12.010000
21853 si 16720 TPS Si 21853 1.1 28.085000
21854 ca 16720 TPS CA6 21854 -0.0753 12.010000
21855 ha 16720 TPS HH6 21855 0.1332 1.008000
21856 ca 16720 TPS CA5 21856 -0.1548 12.010000
21857 ha 16720 TPS HA5 21857 0.1282 1.008000
21858 ca 16720 TPS CA4 21858 -0.1028 12.010000
21859 ha 16720 TPS HA4 21859 0.1262 1.008000
21860 ca 16720 TPS CA3 21860 -0.1548 12.010000
21861 ha 16720 TPS HA3 21861 0.1282 1.008000
21862 ha 16721 TPS HA2 21862 0.1332 1.008000
21863 ca 16721 TPS CA2 21863 -0.0753 12.010000
21864 ca 16721 TPS CA1 21864 -0.361 12.010000
21865 si 16721 TPS Si 21865 1.1 28.085000
21866 ca 16721 TPS CA6 21866 -0.0753 12.010000
21867 ha 16721 TPS HH6 21867 0.1332 1.008000
21868 ca 16721 TPS CA5 21868 -0.1548 12.010000
21869 ha 16721 TPS HA5 21869 0.1282 1.008000
21870 ca 16721 TPS CA4 21870 -0.1028 12.010000
21871 ha 16721 TPS HA4 21871 0.1262 1.008000
21872 ca 16721 TPS CA3 21872 -0.1548 12.010000
21873 ha 16721 TPS HA3 21873 0.1282 1.008000
21874 ha 16722 TPS HA2 21874 0.1332 1.008000
21875 ca 16722 TPS CA2 21875 -0.0753 12.010000
21876 ca 16722 TPS CA1 21876 -0.361 12.010000
21877 si 16722 TPS Si 21877 1.1 28.085000
21878 ca 16722 TPS CA6 21878 -0.0753 12.010000
21879 ha 16722 TPS HH6 21879 0.1332 1.008000
21880 ca 16722 TPS CA5 21880 -0.1548 12.010000
21881 ha 16722 TPS HA5 21881 0.1282 1.008000
21882 ca 16722 TPS CA4 21882 -0.1028 12.010000
21883 ha 16722 TPS HA4 21883 0.1262 1.008000
21884 ca 16722 TPS CA3 21884 -0.1548 12.010000
21885 ha 16722 TPS HA3 21885 0.1282 1.008000
21886 ha 16723 TPS HA2 21886 0.1332 1.008000
21887 ca 16723 TPS CA2 21887 -0.0753 12.010000
21888 ca 16723 TPS CA1 21888 -0.361 12.010000
21889 si 16723 TPS Si 21889 1.1 28.085000
21890 ca 16723 TPS CA6 21890 -0.0753 12.010000
21891 ha 16723 TPS HH6 21891 0.1332 1.008000
21892 ca 16723 TPS CA5 21892 -0.1548 12.010000
21893 ha 16723 TPS HA5 21893 0.1282 1.008000
21894 ca 16723 TPS CA4 21894 -0.1028 12.010000
21895 ha 16723 TPS HA4 21895 0.1262 1.008000
21896 ca 16723 TPS CA3 21896 -0.1548 12.010000
21897 ha 16723 TPS HA3 21897 0.1282 1.008000
21898 ha 16724 TPS HA2 21898 0.1332 1.008000
21899 ca 16724 TPS CA2 21899 -0.0753 12.010000
21900 ca 16724 TPS CA1 21900 -0.361 12.010000
21901 si 16724 TPS Si 21901 1.1 28.085000
21902 ca 16724 TPS CA6 21902 -0.0753 12.010000
21903 ha 16724 TPS HH6 21903 0.1332 1.008000
21904 ca 16724 TPS CA5 21904 -0.1548 12.010000
21905 ha 16724 TPS HA5 21905 0.1282 1.008000
21906 ca 16724 TPS CA4 21906 -0.1028 12.010000
21907 ha 16724 TPS HA4 21907 0.1262 1.008000
21908 ca 16724 TPS CA3 21908 -0.1548 12.010000
21909 ha 16724 TPS HA3 21909 0.1282 1.008000
21910 ha 16725 TPS HA2 21910 0.1332 1.008000
21911 ca 16725 TPS CA2 21911 -0.0753 12.010000
21912 ca 16725 TPS CA1 21912 -0.361 12.010000
21913 si 16725 TPS Si 21913 1.1 28.085000
21914 ca 16725 TPS CA6 21914 -0.0753 12.010000
21915 ha 16725 TPS HH6 21915 0.1332 1.008000
21916 ca 16725 TPS CA5 21916 -0.1548 12.010000
21917 ha 16725 TPS HA5 21917 0.1282 1.008000
21918 ca 16725 TPS CA4 21918 -0.1028 12.010000
21919 ha 16725 TPS HA4 21919 0.1262 1.008000
21920 ca 16725 TPS CA3 21920 -0.1548 12.010000
21921 ha 16725 TPS HA3 21921 0.1282 1.008000
21922 ha 16726 TPS HA2 21922 0.1332 1.008000
21923 ca 16726 TPS CA2 21923 -0.0753 12.010000
21924 ca 16726 TPS CA1 21924 -0.361 12.010000
21925 si 16726 TPS Si 21925 1.1 28.085000
21926 ca 16726 TPS CA6 21926 -0.0753 12.010000
21927 ha 16726 TPS HH6 21927 0.1332 1.008000
21928 ca 16726 TPS CA5 21928 -0.1548 12.010000
21929 ha 16726 TPS HA5 21929 0.1282 1.008000
21930 ca 16726 TPS CA4 21930 -0.1028 12.010000
21931 ha 16726 TPS HA4 21931 0.1262 1.008000
21932 ca 16726 TPS CA3 21932 -0.1548 12.010000
21933 ha 16726 TPS HA3 21933 0.1282 1.008000
21934 ha 16727 TPS HA2 21934 0.1332 1.008000
21935 ca 16727 TPS CA2 21935 -0.0753 12.010000
21936 ca 16727 TPS CA1 21936 -0.361 12.010000
21937 si 16727 TPS Si 21937 1.1 28.085000
21938 ca 16727 TPS CA6 21938 -0.0753 12.010000
21939 ha 16727 TPS HH6 21939 0.1332 1.008000
21940 ca 16727 TPS CA5 21940 -0.1548 12.010000
21941 ha 16727 TPS HA5 21941 0.1282 1.008000
21942 ca 16727 TPS CA4 21942 -0.1028 12.010000
21943 ha 16727 TPS HA4 21943 0.1262 1.008000
21944 ca 16727 TPS CA3 21944 -0.1548 12.010000
21945 ha 16727 TPS HA3 21945 0.1282 1.008000
21946 ha 16728 TPS HA2 21946 0.1332 1.008000
21947 ca 16728 TPS CA2 21947 -0.0753 12.010000
21948 ca 16728 TPS CA1 21948 -0.361 12.010000
21949 si 16728 TPS Si 21949 1.1 28.085000
21950 ca 16728 TPS CA6 21950 -0.0753 12.010000
21951 ha 16728 TPS HH6 21951 0.1332 1.008000
21952 ca 16728 TPS CA5 21952 -0.1548 12.010000
21953 ha 16728 TPS HA5 21953 0.1282 1.008000
21954 ca 16728 TPS CA4 21954 -0.1028 12.010000
21955 ha 16728 TPS HA4 21955 0.1262 1.008000
21956 ca 16728 TPS CA3 21956 -0.1548 12.010000
21957 ha 16728 TPS HA3 21957 0.1282 1.008000
21958 ha 16729 TPS HA2 21958 0.1332 1.008000
21959 ca 16729 TPS CA2 21959 -0.0753 12.010000
21960 ca 16729 TPS CA1 21960 -0.361 12.010000
21961 si 16729 TPS Si 21961 1.1 28.085000
21962 ca 16729 TPS CA6 21962 -0.0753 12.010000
21963 ha 16729 TPS HH6 21963 0.1332 1.008000
21964 ca 16729 TPS CA5 21964 -0.1548 12.010000
21965 ha 16729 TPS HA5 21965 0.1282 1.008000
21966 ca 16729 TPS CA4 21966 -0.1028 12.010000
21967 ha 16729 TPS HA4 21967 0.1262 1.008000
21968 ca 16729 TPS CA3 21968 -0.1548 12.010000
21969 ha 16729 TPS HA3 21969 0.1282 1.008000
21970 ha 16730 TPS HA2 21970 0.1332 1.008000
21971 ca 16730 TPS CA2 21971 -0.0753 12.010000
21972 ca 16730 TPS CA1 21972 -0.361 12.010000
21973 si 16730 TPS Si 21973 1.1 28.085000
21974 ca 16730 TPS CA6 21974 -0.0753 12.010000
21975 ha 16730 TPS HH6 21975 0.1332 1.008000
21976 ca 16730 TPS CA5 21976 -0.1548 12.010000
21977 ha 16730 TPS HA5 21977 0.1282 1.008000
21978 ca 16730 TPS CA4 21978 -0.1028 12.010000
21979 ha 16730 TPS HA4 21979 0.1262 1.008000
21980 ca 16730 TPS CA3 21980 -0.1548 12.010000
21981 ha 16730 TPS HA3 21981 0.1282 1.008000
21982 ha 16731 TPS HA2 21982 0.1332 1.008000
21983 ca 16731 TPS CA2 21983 -0.0753 12.010000
21984 ca 16731 TPS CA1 21984 -0.361 12.010000
21985 si 16731 TPS Si 21985 1.1 28.085000
21986 ca 16731 TPS CA6 21986 -0.0753 12.010000
21987 ha 16731 TPS HH6 21987 0.1332 1.008000
21988 ca 16731 TPS CA5 21988 -0.1548 12.010000
21989 ha 16731 TPS HA5 21989 0.1282 1.008000
21990 ca 16731 TPS CA4 21990 -0.1028 12.010000
21991 ha 16731 TPS HA4 21991 0.1262 1.008000
21992 ca 16731 TPS CA3 21992 -0.1548 12.010000
21993 ha 16731 TPS HA3 21993 0.1282 1.008000
21994 ha 16732 TPS HA2 21994 0.1332 1.008000
21995 ca 16732 TPS CA2 21995 -0.0753 12.010000
21996 ca 16732 TPS CA1 21996 -0.361 12.010000
21997 si 16732 TPS Si 21997 1.1 28.085000
21998 ca 16732 TPS CA6 21998 -0.0753 12.010000
21999 ha 16732 TPS HH6 21999 0.1332 1.008000
22000 ca 16732 TPS CA5 22000 -0.1548 12.010000
22001 ha 16732 TPS HA5 22001 0.1282 1.008000
22002 ca 16732 TPS CA4 22002 -0.1028 12.010000
22003 ha 16732 TPS HA4 22003 0.1262 1.008000
22004 ca 16732 TPS CA3 22004 -0.1548 12.010000
22005 ha 16732 TPS HA3 22005 0.1282 1.008000
22006 ha 16733 TPS HA2 22006 0.1332 1.008000
22007 ca 16733 TPS CA2 22007 -0.0753 12.010000
22008 ca 16733 TPS CA1 22008 -0.361 12.010000
22009 si 16733 TPS Si 22009 1.1 28.085000
22010 ca 16733 TPS CA6 22010 -0.0753 12.010000
22011 ha 16733 TPS HH6 22011 0.1332 1.008000
22012 ca 16733 TPS CA5 22012 -0.1548 12.010000
22013 ha 16733 TPS HA5 22013 0.1282 1.008000
22014 ca 16733 TPS CA4 22014 -0.1028 12.010000
22015 ha 16733 TPS HA4 22015 0.1262 1.008000
22016 ca 16733 TPS CA3 22016 -0.1548 12.010000
22017 ha 16733 TPS HA3 22017 0.1282 1.008000
22018 ha 16734 TPS HA2 22018 0.1332 1.008000
22019 ca 16734 TPS CA2 22019 -0.0753 12.010000
22020 ca 16734 TPS CA1 22020 -0.361 12.010000
22021 si 16734 TPS Si 22021 1.1 28.085000
22022 ca 16734 TPS CA6 22022 -0.0753 12.010000
22023 ha 16734 TPS HH6 22023 0.1332 1.008000
22024 ca 16734 TPS CA5 22024 -0.1548 12.010000
22025 ha 16734 TPS HA5 22025 0.1282 1.008000
22026 ca 16734 TPS CA4 22026 -0.1028 12.010000
22027 ha 16734 TPS HA4 22027 0.1262 1.008000
22028 ca 16734 TPS CA3 22028 -0.1548 12.010000
22029 ha 16734 TPS HA3 22029 0.1282 1.008000
22030 ha 16735 TPS HA2 22030 0.1332 1.008000
22031 ca 16735 TPS CA2 22031 -0.0753 12.010000
22032 ca 16735 TPS CA1 22032 -0.361 12.010000
22033 si 16735 TPS Si 22033 1.1 28.085000
22034 ca 16735 TPS CA6 22034 -0.0753 12.010000
22035 ha 16735 TPS HH6 22035 0.1332 1.008000
22036 ca 16735 TPS CA5 22036 -0.1548 12.010000
22037 ha 16735 TPS HA5 22037 0.1282 1.008000
22038 ca 16735 TPS CA4 22038 -0.1028 12.010000
22039 ha 16735 TPS HA4 22039 0.1262 1.008000
22040 ca 16735 TPS CA3 22040 -0.1548 12.010000
22041 ha 16735 TPS HA3 22041 0.1282 1.008000
22042 ha 16736 TPS HA2 22042 0.1332 1.008000
22043 ca 16736 TPS CA2 22043 -0.0753 12.010000
22044 ca 16736 TPS CA1 22044 -0.361 12.010000
22045 si 16736 TPS Si 22045 1.1 28.085000
22046 ca 16736 TPS CA6 22046 -0.0753 12.010000
22047 ha 16736 TPS HH6 22047 0.1332 1.008000
22048 ca 16736 TPS CA5 22048 -0.1548 12.010000
22049 ha 16736 TPS HA5 22049 0.1282 1.008000
22050 ca 16736 TPS CA4 22050 -0.1028 12.010000
22051 ha 16736 TPS HA4 22051 0.1262 1.008000
22052 ca 16736 TPS CA3 22052 -0.1548 12.010000
22053 ha 16736 TPS HA3 22053 0.1282 1.008000
22054 ha 16737 TPS HA2 22054 0.1332 1.008000
22055 ca 16737 TPS CA2 22055 -0.0753 12.010000
22056 ca 16737 TPS CA1 22056 -0.361 12.010000
22057 si 16737 TPS Si 22057 1.1 28.085000
22058 ca 16737 TPS CA6 22058 -0.0753 12.010000
22059 ha 16737 TPS HH6 22059 0.1332 1.008000
22060 ca 16737 TPS CA5 22060 -0.1548 12.010000
22061 ha 16737 TPS HA5 22061 0.1282 1.008000
22062 ca 16737 TPS CA4 22062 -0.1028 12.010000
22063 ha 16737 TPS HA4 22063 0.1262 1.008000
22064 ca 16737 TPS CA3 22064 -0.1548 12.010000
22065 ha 16737 TPS HA3 22065 0.1282 1.008000
22066 ha 16738 TPS HA2 22066 0.1332 1.008000
22067 ca 16738 TPS CA2 22067 -0.0753 12.010000
22068 ca 16738 TPS CA1 22068 -0.361 12.010000
22069 si 16738 TPS Si 22069 1.1 28.085000
22070 ca 16738 TPS CA6 22070 -0.0753 12.010000
22071 ha 16738 TPS HH6 22071 0.1332 1.008000
22072 ca 16738 TPS CA5 22072 -0.1548 12.010000
22073 ha 16738 TPS HA5 22073 0.1282 1.008000
22074 ca 16738 TPS CA4 22074 -0.1028 12.010000
22075 ha 16738 TPS HA4 22075 0.1262 1.008000
22076 ca 16738 TPS CA3 22076 -0.1548 12.010000
22077 ha 16738 TPS HA3 22077 0.1282 1.008000
22078 ha 16739 TPS HA2 22078 0.1332 1.008000
22079 ca 16739 TPS CA2 22079 -0.0753 12.010000
22080 ca 16739 TPS CA1 22080 -0.361 12.010000
22081 si 16739 TPS Si 22081 1.1 28.085000
22082 ca 16739 TPS CA6 22082 -0.0753 12.010000
22083 ha 16739 TPS HH6 22083 0.1332 1.008000
22084 ca 16739 TPS CA5 22084 -0.1548 12.010000
22085 ha 16739 TPS HA5 22085 0.1282 1.008000
22086 ca 16739 TPS CA4 22086 -0.1028 12.010000
22087 ha 16739 TPS HA4 22087 0.1262 1.008000
22088 ca 16739 TPS CA3 22088 -0.1548 12.010000
22089 ha 16739 TPS HA3 22089 0.1282 1.008000
22090 ha 16740 TPS HA2 22090 0.1332 1.008000
22091 ca 16740 TPS CA2 22091 -0.0753 12.010000
22092 ca 16740 TPS CA1 22092 -0.361 12.010000
22093 si 16740 TPS Si 22093 1.1 28.085000
22094 ca 16740 TPS CA6 22094 -0.0753 12.010000
22095 ha 16740 TPS HH6 22095 0.1332 1.008000
22096 ca 16740 TPS CA5 22096 -0.1548 12.010000
22097 ha 16740 TPS HA5 22097 0.1282 1.008000
22098 ca 16740 TPS CA4 22098 -0.1028 12.010000
22099 ha 16740 TPS HA4 22099 0.1262 1.008000
22100 ca 16740 TPS CA3 22100 -0.1548 12.010000
22101 ha 16740 TPS HA3 22101 0.1282 1.008000
22102 ha 16741 TPS HA2 22102 0.1332 1.008000
22103 ca 16741 TPS CA2 22103 -0.0753 12.010000
22104 ca 16741 TPS CA1 22104 -0.361 12.010000
22105 si 16741 TPS Si 22105 1.1 28.085000
22106 ca 16741 TPS CA6 22106 -0.0753 12.010000
22107 ha 16741 TPS HH6 22107 0.1332 1.008000
22108 ca 16741 TPS CA5 22108 -0.1548 12.010000
22109 ha 16741 TPS HA5 22109 0.1282 1.008000
22110 ca 16741 TPS CA4 22110 -0.1028 12.010000
22111 ha 16741 TPS HA4 22111 0.1262 1.008000
22112 ca 16741 TPS CA3 22112 -0.1548 12.010000
22113 ha 16741 TPS HA3 22113 0.1282 1.008000
22114 ha 16742 TPS HA2 22114 0.1332 1.008000
22115 ca 16742 TPS CA2 22115 -0.0753 12.010000
22116 ca 16742 TPS CA1 22116 -0.361 12.010000
22117 si 16742 TPS Si 22117 1.1 28.085000
22118 ca 16742 TPS CA6 22118 -0.0753 12.010000
22119 ha 16742 TPS HH6 22119 0.1332 1.008000
22120 ca 16742 TPS CA5 22120 -0.1548 12.010000
22121 ha 16742 TPS HA5 22121 0.1282 1.008000
22122 ca 16742 TPS CA4 22122 -0.1028 12.010000
22123 ha 16742 TPS HA4 22123 0.1262 1.008000
22124 ca 16742 TPS CA3 22124 -0.1548 12.010000
22125 ha 16742 TPS HA3 22125 0.1282 1.008000
22126 ha 16743 TPS HA2 22126 0.1332 1.008000
22127 ca 16743 TPS CA2 22127 -0.0753 12.010000
22128 ca 16743 TPS CA1 22128 -0.361 12.010000
22129 si 16743 TPS Si 22129 1.1 28.085000
22130 ca 16743 TPS CA6 22130 -0.0753 12.010000
22131 ha 16743 TPS HH6 22131 0.1332 1.008000
22132 ca 16743 TPS CA5 22132 -0.1548 12.010000
22133 ha 16743 TPS HA5 22133 0.1282 1.008000
22134 ca 16743 TPS CA4 22134 -0.1028 12.010000
22135 ha 16743 TPS HA4 22135 0.1262 1.008000
22136 ca 16743 TPS CA3 22136 -0.1548 12.010000
22137 ha 16743 TPS HA3 22137 0.1282 1.008000
22138 ha 16744 TPS HA2 22138 0.1332 1.008000
22139 ca 16744 TPS CA2 22139 -0.0753 12.010000
22140 ca 16744 TPS CA1 22140 -0.361 12.010000
22141 si 16744 TPS Si 22141 1.1 28.085000
22142 ca 16744 TPS CA6 22142 -0.0753 12.010000
22143 ha 16744 TPS HH6 22143 0.1332 1.008000
22144 ca 16744 TPS CA5 22144 -0.1548 12.010000
22145 ha 16744 TPS HA5 22145 0.1282 1.008000
22146 ca 16744 TPS CA4 22146 -0.1028 12.010000
22147 ha 16744 TPS HA4 22147 0.1262 1.008000
22148 ca 16744 TPS CA3 22148 -0.1548 12.010000
22149 ha 16744 TPS HA3 22149 0.1282 1.008000
22150 ha 16745 TPS HA2 22150 0.1332 1.008000
22151 ca 16745 TPS CA2 22151 -0.0753 12.010000
22152 ca 16745 TPS CA1 22152 -0.361 12.010000
22153 si 16745 TPS Si 22153 1.1 28.085000
22154 ca 16745 TPS CA6 22154 -0.0753 12.010000
22155 ha 16745 TPS HH6 22155 0.1332 1.008000
22156 ca 16745 TPS CA5 22156 -0.1548 12.010000
22157 ha 16745 TPS HA5 22157 0.1282 1.008000
22158 ca 16745 TPS CA4 22158 -0.1028 12.010000
22159 ha 16745 TPS HA4 22159 0.1262 1.008000
22160 ca 16745 TPS CA3 22160 -0.1548 12.010000
22161 ha 16745 TPS HA3 22161 0.1282 1.008000
22162 ha 16746 TPS HA2 22162 0.1332 1.008000
22163 ca 16746 TPS CA2 22163 -0.0753 12.010000
22164 ca 16746 TPS CA1 22164 -0.361 12.010000
22165 si 16746 TPS Si 22165 1.1 28.085000
22166 ca 16746 TPS CA6 22166 -0.0753 12.010000
22167 ha 16746 TPS HH6 22167 0.1332 1.008000
22168 ca 16746 TPS CA5 22168 -0.1548 12.010000
22169 ha 16746 TPS HA5 22169 0.1282 1.008000
22170 ca 16746 TPS CA4 22170 -0.1028 12.010000
22171 ha 16746 TPS HA4 22171 0.1262 1.008000
22172 ca 16746 TPS CA3 22172 -0.1548 12.010000
22173 ha 16746 TPS HA3 22173 0.1282 1.008000
22174 ha 16747 TPS HA2 22174 0.1332 1.008000
22175 ca 16747 TPS CA2 22175 -0.0753 12.010000
22176 ca 16747 TPS CA1 22176 -0.361 12.010000
22177 si 16747 TPS Si 22177 1.1 28.085000
22178 ca 16747 TPS CA6 22178 -0.0753 12.010000
22179 ha 16747 TPS HH6 22179 0.1332 1.008000
22180 ca 16747 TPS CA5 22180 -0.1548 12.010000
22181 ha 16747 TPS HA5 22181 0.1282 1.008000
22182 ca 16747 TPS CA4 22182 -0.1028 12.010000
22183 ha 16747 TPS HA4 22183 0.1262 1.008000
22184 ca 16747 TPS CA3 22184 -0.1548 12.010000
22185 ha 16747 TPS HA3 22185 0.1282 1.008000
22186 ha 16748 TPS HA2 22186 0.1332 1.008000
22187 ca 16748 TPS CA2 22187 -0.0753 12.010000
22188 ca 16748 TPS CA1 22188 -0.361 12.010000
22189 si 16748 TPS Si 22189 1.1 28.085000
22190 ca 16748 TPS CA6 22190 -0.0753 12.010000
22191 ha 16748 TPS HH6 22191 0.1332 1.008000
22192 ca 16748 TPS CA5 22192 -0.1548 12.010000
22193 ha 16748 TPS HA5 22193 0.1282 1.008000
22194 ca 16748 TPS CA4 22194 -0.1028 12.010000
22195 ha 16748 TPS HA4 22195 0.1262 1.008000
22196 ca 16748 TPS CA3 22196 -0.1548 12.010000
22197 ha 16748 TPS HA3 22197 0.1282 1.008000
22198 ha 16749 TPS HA2 22198 0.1332 1.008000
22199 ca 16749 TPS CA2 22199 -0.0753 12.010000
22200 ca 16749 TPS CA1 22200 -0.361 12.010000
22201 si 16749 TPS Si 22201 1.1 28.085000
22202 ca 16749 TPS CA6 22202 -0.0753 12.010000
22203 ha 16749 TPS HH6 22203 0.1332 1.008000
22204 ca 16749 TPS CA5 22204 -0.1548 12.010000
22205 ha 16749 TPS HA5 22205 0.1282 1.008000
22206 ca 16749 TPS CA4 22206 -0.1028 12.010000
22207 ha 16749 TPS HA4 22207 0.1262 1.008000
22208 ca 16749 TPS CA3 22208 -0.1548 12.010000
22209 ha 16749 TPS HA3 22209 0.1282 1.008000
22210 ha 16750 TPS HA2 22210 0.1332 1.008000
22211 ca 16750 TPS CA2 22211 -0.0753 12.010000
22212 ca 16750 TPS CA1 22212 -0.361 12.010000
22213 si 16750 TPS Si 22213 1.1 28.085000
22214 ca 16750 TPS CA6 22214 -0.0753 12.010000
22215 ha 16750 TPS HH6 22215 0.1332 1.008000
22216 ca 16750 TPS CA5 22216 -0.1548 12.010000
22217 ha 16750 TPS HA5 22217 0.1282 1.008000
22218 ca 16750 TPS CA4 22218 -0.1028 12.010000
22219 ha 16750 TPS HA4 22219 0.1262 1.008000
22220 ca 16750 TPS CA3 22220 -0.1548 12.010000
22221 ha 16750 TPS HA3 22221 0.1282 1.008000
22222 ha 16751 TPS HA2 22222 0.1332 1.008000
22223 ca 16751 TPS CA2 22223 -0.0753 12.010000
22224 ca 16751 TPS CA1 22224 -0.361 12.010000
22225 si 16751 TPS Si 22225 1.1 28.085000
22226 ca 16751 TPS CA6 22226 -0.0753 12.010000
22227 ha 16751 TPS HH6 22227 0.1332 1.008000
22228 ca 16751 TPS CA5 22228 -0.1548 12.010000
22229 ha 16751 TPS HA5 22229 0.1282 1.008000
22230 ca 16751 TPS CA4 22230 -0.1028 12.010000
22231 ha 16751 TPS HA4 22231 0.1262 1.008000
22232 ca 16751 TPS CA3 22232 -0.1548 12.010000
22233 ha 16751 TPS HA3 22233 0.1282 1.008000
22234 ha 16752 TPS HA2 22234 0.1332 1.008000
22235 ca 16752 TPS CA2 22235 -0.0753 12.010000
22236 ca 16752 TPS CA1 22236 -0.361 12.010000
22237 si 16752 TPS Si 22237 1.1 28.085000
22238 ca 16752 TPS CA6 22238 -0.0753 12.010000
22239 ha 16752 TPS HH6 22239 0.1332 1.008000
22240 ca 16752 TPS CA5 22240 -0.1548 12.010000
22241 ha 16752 TPS HA5 22241 0.1282 1.008000
22242 ca 16752 TPS CA4 22242 -0.1028 12.010000
22243 ha 16752 TPS HA4 22243 0.1262 1.008000
22244 ca 16752 TPS CA3 22244 -0.1548 12.010000
22245 ha 16752 TPS HA3 22245 0.1282 1.008000
22246 ha 16753 TPS HA2 22246 0.1332 1.008000
22247 ca 16753 TPS CA2 22247 -0.0753 12.010000
22248 ca 16753 TPS CA1 22248 -0.361 12.010000
22249 si 16753 TPS Si 22249 1.1 28.085000
22250 ca 16753 TPS CA6 22250 -0.0753 12.010000
22251 ha 16753 TPS HH6 22251 0.1332 1.008000
22252 ca 16753 TPS CA5 22252 -0.1548 12.010000
22253 ha 16753 TPS HA5 22253 0.1282 1.008000
22254 ca 16753 TPS CA4 22254 -0.1028 12.010000
22255 ha 16753 TPS HA4 22255 0.1262 1.008000
22256 ca 16753 TPS CA3 22256 -0.1548 12.010000
22257 ha 16753 TPS HA3 22257 0.1282 1.008000
22258 ha 16754 TPS HA2 22258 0.1332 1.008000
22259 ca 16754 TPS CA2 22259 -0.0753 12.010000
22260 ca 16754 TPS CA1 22260 -0.361 12.010000
22261 si 16754 TPS Si 22261 1.1 28.085000
22262 ca 16754 TPS CA6 22262 -0.0753 12.010000
22263 ha 16754 TPS HH6 22263 0.1332 1.008000
22264 ca 16754 TPS CA5 22264 -0.1548 12.010000
22265 ha 16754 TPS HA5 22265 0.1282 1.008000
22266 ca 16754 TPS CA4 22266 -0.1028 12.010000
22267 ha 16754 TPS HA4 22267 0.1262 1.008000
22268 ca 16754 TPS CA3 22268 -0.1548 12.010000
22269 ha 16754 TPS HA3 22269 0.1282 1.008000
22270 ha 16755 TPS HA2 22270 0.1332 1.008000
22271 ca 16755 TPS CA2 22271 -0.0753 12.010000
22272 ca 16755 TPS CA1 22272 -0.361 12.010000
22273 si 16755 TPS Si 22273 1.1 28.085000
22274 ca 16755 TPS CA6 22274 -0.0753 12.010000
22275 ha 16755 TPS HH6 22275 0.1332 1.008000
22276 ca 16755 TPS CA5 22276 -0.1548 12.010000
22277 ha 16755 TPS HA5 22277 0.1282 1.008000
22278 ca 16755 TPS CA4 22278 -0.1028 12.010000
22279 ha 16755 TPS HA4 22279 0.1262 1.008000
22280 ca 16755 TPS CA3 22280 -0.1548 12.010000
22281 ha 16755 TPS HA3 22281 0.1282 1.008000
22282 ha 16756 TPS HA2 22282 0.1332 1.008000
22283 ca 16756 TPS CA2 22283 -0.0753 12.010000
22284 ca 16756 TPS CA1 22284 -0.361 12.010000
22285 si 16756 TPS Si 22285 1.1 28.085000
22286 ca 16756 TPS CA6 22286 -0.0753 12.010000
22287 ha 16756 TPS HH6 22287 0.1332 1.008000
22288 ca 16756 TPS CA5 22288 -0.1548 12.010000
22289 ha 16756 TPS HA5 22289 0.1282 1.008000
22290 ca 16756 TPS CA4 22290 -0.1028 12.010000
22291 ha 16756 TPS HA4 22291 0.1262 1.008000
22292 ca 16756 TPS CA3 22292 -0.1548 12.010000
22293 ha 16756 TPS HA3 22293 0.1282 1.008000
22294 ha 16757 TPS HA2 22294 0.1332 1.008000
22295 ca 16757 TPS CA2 22295 -0.0753 12.010000
22296 ca 16757 TPS CA1 22296 -0.361 12.010000
22297 si 16757 TPS Si 22297 1.1 28.085000
22298 ca 16757 TPS CA6 22298 -0.0753 12.010000
22299 ha 16757 TPS HH6 22299 0.1332 1.008000
22300 ca 16757 TPS CA5 22300 -0.1548 12.010000
22301 ha 16757 TPS HA5 22301 0.1282 1.008000
22302 ca 16757 TPS CA4 22302 -0.1028 12.010000
22303 ha 16757 TPS HA4 22303 0.1262 1.008000
22304 ca 16757 TPS CA3 22304 -0.1548 12.010000
22305 ha 16757 TPS HA3 22305 0.1282 1.008000
22306 ha 16758 TPS HA2 22306 0.1332 1.008000
22307 ca 16758 TPS CA2 22307 -0.0753 12.010000
22308 ca 16758 TPS CA1 22308 -0.361 12.010000
22309 si 16758 TPS Si 22309 1.1 28.085000
22310 ca 16758 TPS CA6 22310 -0.0753 12.010000
22311 ha 16758 TPS HH6 22311 0.1332 1.008000
22312 ca 16758 TPS CA5 22312 -0.1548 12.010000
22313 ha 16758 TPS HA5 22313 0.1282 1.008000
22314 ca 16758 TPS CA4 22314 -0.1028 12.010000
22315 ha 16758 TPS HA4 22315 0.1262 1.008000
22316 ca 16758 TPS CA3 22316 -0.1548 12.010000
22317 ha 16758 TPS HA3 22317 0.1282 1.008000
22318 ha 16759 TPS HA2 22318 0.1332 1.008000
22319 ca 16759 TPS CA2 22319 -0.0753 12.010000
22320 ca 16759 TPS CA1 22320 -0.361 12.010000
22321 si 16759 TPS Si 22321 1.1 28.085000
22322 ca 16759 TPS CA6 22322 -0.0753 12.010000
22323 ha 16759 TPS HH6 22323 0.1332 1.008000
22324 ca 16759 TPS CA5 22324 -0.1548 12.010000
22325 ha 16759 TPS HA5 22325 0.1282 1.008000
22326 ca 16759 TPS CA4 22326 -0.1028 12.010000
22327 ha 16759 TPS HA4 22327 0.1262 1.008000
22328 ca 16759 TPS CA3 22328 -0.1548 12.010000
22329 ha 16759 TPS HA3 22329 0.1282 1.008000
22330 ha 16760 TPS HA2 22330 0.1332 1.008000
22331 ca 16760 TPS CA2 22331 -0.0753 12.010000
22332 ca 16760 TPS CA1 22332 -0.361 12.010000
22333 si 16760 TPS Si 22333 1.1 28.085000
22334 ca 16760 TPS CA6 22334 -0.0753 12.010000
22335 ha 16760 TPS HH6 22335 0.1332 1.008000
22336 ca 16760 TPS CA5 22336 -0.1548 12.010000
22337 ha 16760 TPS HA5 22337 0.1282 1.008000
22338 ca 16760 TPS CA4 22338 -0.1028 12.010000
22339 ha 16760 TPS HA4 22339 0.1262 1.008000
22340 ca 16760 TPS CA3 22340 -0.1548 12.010000
22341 ha 16760 TPS HA3 22341 0.1282 1.008000
22342 ha 16761 TPS HA2 22342 0.1332 1.008000
22343 ca 16761 TPS CA2 22343 -0.0753 12.010000
22344 ca 16761 TPS CA1 22344 -0.361 12.010000
22345 si 16761 TPS Si 22345 1.1 28.085000
22346 ca 16761 TPS CA6 22346 -0.0753 12.010000
22347 ha 16761 TPS HH6 22347 0.1332 1.008000
22348 ca 16761 TPS CA5 22348 -0.1548 12.010000
22349 ha 16761 TPS HA5 22349 0.1282 1.008000
22350 ca 16761 TPS CA4 22350 -0.1028 12.010000
22351 ha 16761 TPS HA4 22351 0.1262 1.008000
22352 ca 16761 TPS CA3 22352 -0.1548 12.010000
22353 ha 16761 TPS HA3 22353 0.1282 1.008000
22354 ha 16762 TPS HA2 22354 0.1332 1.008000
22355 ca 16762 TPS CA2 22355 -0.0753 12.010000
22356 ca 16762 TPS CA1 22356 -0.361 12.010000
22357 si 16762 TPS Si 22357 1.1 28.085000
22358 ca 16762 TPS CA6 22358 -0.0753 12.010000
22359 ha 16762 TPS HH6 22359 0.1332 1.008000
22360 ca 16762 TPS CA5 22360 -0.1548 12.010000
22361 ha 16762 TPS HA5 22361 0.1282 1.008000
22362 ca 16762 TPS CA4 22362 -0.1028 12.010000
22363 ha 16762 TPS HA4 22363 0.1262 1.008000
22364 ca 16762 TPS CA3 22364 -0.1548 12.010000
22365 ha 16762 TPS HA3 22365 0.1282 1.008000
22366 ha 16763 TPS HA2 22366 0.1332 1.008000
22367 ca 16763 TPS CA2 22367 -0.0753 12.010000
22368 ca 16763 TPS CA1 22368 -0.361 12.010000
22369 si 16763 TPS Si 22369 1.1 28.085000
22370 ca 16763 TPS CA6 22370 -0.0753 12.010000
22371 ha 16763 TPS HH6 22371 0.1332 1.008000
22372 ca 16763 TPS CA5 22372 -0.1548 12.010000
22373 ha 16763 TPS HA5 22373 0.1282 1.008000
22374 ca 16763 TPS CA4 22374 -0.1028 12.010000
22375 ha 16763 TPS HA4 22375 0.1262 1.008000
22376 ca 16763 TPS CA3 22376 -0.1548 12.010000
22377 ha 16763 TPS HA3 22377 0.1282 1.008000
22378 ha 16764 TPS HA2 22378 0.1332 1.008000
22379 ca 16764 TPS CA2 22379 -0.0753 12.010000
22380 ca 16764 TPS CA1 22380 -0.361 12.010000
22381 si 16764 TPS Si 22381 1.1 28.085000
22382 ca 16764 TPS CA6 22382 -0.0753 12.010000
22383 ha 16764 TPS HH6 22383 0.1332 1.008000
22384 ca 16764 TPS CA5 22384 -0.1548 12.010000
22385 ha 16764 TPS HA5 22385 0.1282 1.008000
22386 ca 16764 TPS CA4 22386 -0.1028 12.010000
22387 ha 16764 TPS HA4 22387 0.1262 1.008000
22388 ca 16764 TPS CA3 22388 -0.1548 12.010000
22389 ha 16764 TPS HA3 22389 0.1282 1.008000
22390 ha 16765 TPS HA2 22390 0.1332 1.008000
22391 ca 16765 TPS CA2 22391 -0.0753 12.010000
22392 ca 16765 TPS CA1 22392 -0.361 12.010000
22393 si 16765 TPS Si 22393 1.1 28.085000
22394 ca 16765 TPS CA6 22394 -0.0753 12.010000
22395 ha 16765 TPS HH6 22395 0.1332 1.008000
22396 ca 16765 TPS CA5 22396 -0.1548 12.010000
22397 ha 16765 TPS HA5 22397 0.1282 1.008000
22398 ca 16765 TPS CA4 22398 -0.1028 12.010000
22399 ha 16765 TPS HA4 22399 0.1262 1.008000
22400 ca 16765 TPS CA3 22400 -0.1548 12.010000
22401 ha 16765 TPS HA3 22401 0.1282 1.008000
22402 ha 16766 TPS HA2 22402 0.1332 1.008000
22403 ca 16766 TPS CA2 22403 -0.0753 12.010000
22404 ca 16766 TPS CA1 22404 -0.361 12.010000
22405 si 16766 TPS Si 22405 1.1 28.085000
22406 ca 16766 TPS CA6 22406 -0.0753 12.010000
22407 ha 16766 TPS HH6 22407 0.1332 1.008000
22408 ca 16766 TPS CA5 22408 -0.1548 12.010000
22409 ha 16766 TPS HA5 22409 0.1282 1.008000
22410 ca 16766 TPS CA4 22410 -0.1028 12.010000
22411 ha 16766 TPS HA4 22411 0.1262 1.008000
22412 ca 16766 TPS CA3 22412 -0.1548 12.010000
22413 ha 16766 TPS HA3 22413 0.1282 1.008000
22414 ha 16767 TPS HA2 22414 0.1332 1.008000
22415 ca 16767 TPS CA2 22415 -0.0753 12.010000
22416 ca 16767 TPS CA1 22416 -0.361 12.010000
22417 si 16767 TPS Si 22417 1.1 28.085000
22418 ca 16767 TPS CA6 22418 -0.0753 12.010000
22419 ha 16767 TPS HH6 22419 0.1332 1.008000
22420 ca 16767 TPS CA5 22420 -0.1548 12.010000
22421 ha 16767 TPS HA5 22421 0.1282 1.008000
22422 ca 16767 TPS CA4 22422 -0.1028 12.010000
22423 ha 16767 TPS HA4 22423 0.1262 1.008000
22424 ca 16767 TPS CA3 22424 -0.1548 12.010000
22425 ha 16767 TPS HA3 22425 0.1282 1.008000
22426 ha 16768 TPS HA2 22426 0.1332 1.008000
22427 ca 16768 TPS CA2 22427 -0.0753 12.010000
22428 ca 16768 TPS CA1 22428 -0.361 12.010000
22429 si 16768 TPS Si 22429 1.1 28.085000
22430 ca 16768 TPS CA6 22430 -0.0753 12.010000
22431 ha 16768 TPS HH6 22431 0.1332 1.008000
22432 ca 16768 TPS CA5 22432 -0.1548 12.010000
22433 ha 16768 TPS HA5 22433 0.1282 1.008000
22434 ca 16768 TPS CA4 22434 -0.1028 12.010000
22435 ha 16768 TPS HA4 22435 0.1262 1.008000
22436 ca 16768 TPS CA3 22436 -0.1548 12.010000
22437 ha 16768 TPS HA3 22437 0.1282 1.008000
22438 ha 16769 TPS HA2 22438 0.1332 1.008000
22439 ca 16769 TPS CA2 22439 -0.0753 12.010000
22440 ca 16769 TPS CA1 22440 -0.361 12.010000
22441 si 16769 TPS Si 22441 1.1 28.085000
22442 ca 16769 TPS CA6 22442 -0.0753 12.010000
22443 ha 16769 TPS HH6 22443 0.1332 1.008000
22444 ca 16769 TPS CA5 22444 -0.1548 12.010000
22445 ha 16769 TPS HA5 22445 0.1282 1.008000
22446 ca 16769 TPS CA4 22446 -0.1028 12.010000
22447 ha 16769 TPS HA4 22447 0.1262 1.008000
22448 ca 16769 TPS CA3 22448 -0.1548 12.010000
22449 ha 16769 TPS HA3 22449 0.1282 1.008000
22450 ha 16770 TPS HA2 22450 0.1332 1.008000
22451 ca 16770 TPS CA2 22451 -0.0753 12.010000
22452 ca 16770 TPS CA1 22452 -0.361 12.010000
22453 si 16770 TPS Si 22453 1.1 28.085000
22454 ca 16770 TPS CA6 22454 -0.0753 12.010000
22455 ha 16770 TPS HH6 22455 0.1332 1.008000
22456 ca 16770 TPS CA5 22456 -0.1548 12.010000
22457 ha 16770 TPS HA5 22457 0.1282 1.008000
22458 ca 16770 TPS CA4 22458 -0.1028 12.010000
22459 ha 16770 TPS HA4 22459 0.1262 1.008000
22460 ca 16770 TPS CA3 22460 -0.1548 12.010000
22461 ha 16770 TPS HA3 22461 0.1282 1.008000
22462 ha 16771 TPS HA2 22462 0.1332 1.008000
22463 ca 16771 TPS CA2 22463 -0.0753 12.010000
22464 ca 16771 TPS CA1 22464 -0.361 12.010000
22465 si 16771 TPS Si 22465 1.1 28.085000
22466 ca 16771 TPS CA6 22466 -0.0753 12.010000
22467 ha 16771 TPS HH6 22467 0.1332 1.008000
22468 ca 16771 TPS CA5 22468 -0.1548 12.010000
22469 ha 16771 TPS HA5 22469 0.1282 1.008000
22470 ca 16771 TPS CA4 22470 -0.1028 12.010000
22471 ha 16771 TPS HA4 22471 0.1262 1.008000
22472 ca 16771 TPS CA3 22472 -0.1548 12.010000
22473 ha 16771 TPS HA3 22473 0.1282 1.008000
22474 ha 16772 TPS HA2 22474 0.1332 1.008000
22475 ca 16772 TPS CA2 22475 -0.0753 12.010000
22476 ca 16772 TPS CA1 22476 -0.361 12.010000
22477 si 16772 TPS Si 22477 1.1 28.085000
22478 ca 16772 TPS CA6 22478 -0.0753 12.010000
22479 ha 16772 TPS HH6 22479 0.1332 1.008000
22480 ca 16772 TPS CA5 22480 -0.1548 12.010000
22481 ha 16772 TPS HA5 22481 0.1282 1.008000
22482 ca 16772 TPS CA4 22482 -0.1028 12.010000
22483 ha 16772 TPS HA4 22483 0.1262 1.008000
22484 ca 16772 TPS CA3 22484 -0.1548 12.010000
22485 ha 16772 TPS HA3 22485 0.1282 1.008000
22486 ha 16773 TPS HA2 22486 0.1332 1.008000
22487 ca 16773 TPS CA2 22487 -0.0753 12.010000
22488 ca 16773 TPS CA1 22488 -0.361 12.010000
22489 si 16773 TPS Si 22489 1.1 28.085000
22490 ca 16773 TPS CA6 22490 -0.0753 12.010000
22491 ha 16773 TPS HH6 22491 0.1332 1.008000
22492 ca 16773 TPS CA5 22492 -0.1548 12.010000
22493 ha 16773 TPS HA5 22493 0.1282 1.008000
22494 ca 16773 TPS CA4 22494 -0.1028 12.010000
22495 ha 16773 TPS HA4 22495 0.1262 1.008000
22496 ca 16773 TPS CA3 22496 -0.1548 12.010000
22497 ha 16773 TPS HA3 22497 0.1282 1.008000
22498 ha 16774 TPS HA2 22498 0.1332 1.008000
22499 ca 16774 TPS CA2 22499 -0.0753 12.010000
22500 ca 16774 TPS CA1 22500 -0.361 12.010000
22501 si 16774 TPS Si 22501 1.1 28.085000
22502 ca 16774 TPS CA6 22502 -0.0753 12.010000
22503 ha 16774 TPS HH6 22503 0.1332 1.008000
22504 ca 16774 TPS CA5 22504 -0.1548 12.010000
22505 ha 16774 TPS HA5 22505 0.1282 1.008000
22506 ca 16774 TPS CA4 22506 -0.1028 12.010000
22507 ha 16774 TPS HA4 22507 0.1262 1.008000
22508 ca 16774 TPS CA3 22508 -0.1548 12.010000
22509 ha 16774 TPS HA3 22509 0.1282 1.008000
22510 ha 16775 TPS HA2 22510 0.1332 1.008000
22511 ca 16775 TPS CA2 22511 -0.0753 12.010000
22512 ca 16775 TPS CA1 22512 -0.361 12.010000
22513 si 16775 TPS Si 22513 1.1 28.085000
22514 ca 16775 TPS CA6 22514 -0.0753 12.010000
22515 ha 16775 TPS HH6 22515 0.1332 1.008000
22516 ca 16775 TPS CA5 22516 -0.1548 12.010000
22517 ha 16775 TPS HA5 22517 0.1282 1.008000
22518 ca 16775 TPS CA4 22518 -0.1028 12.010000
22519 ha 16775 TPS HA4 22519 0.1262 1.008000
22520 ca 16775 TPS CA3 22520 -0.1548 12.010000
22521 ha 16775 TPS HA3 22521 0.1282 1.008000
22522 ha 16776 TPS HA2 22522 0.1332 1.008000
22523 ca 16776 TPS CA2 22523 -0.0753 12.010000
22524 ca 16776 TPS CA1 22524 -0.361 12.010000
22525 si 16776 TPS Si 22525 1.1 28.085000
22526 ca 16776 TPS CA6 22526 -0.0753 12.010000
22527 ha 16776 TPS HH6 22527 0.1332 1.008000
22528 ca 16776 TPS CA5 22528 -0.1548 12.010000
22529 ha 16776 TPS HA5 22529 0.1282 1.008000
22530 ca 16776 TPS CA4 22530 -0.1028 12.010000
22531 ha 16776 TPS HA4 22531 0.1262 1.008000
22532 ca 16776 TPS CA3 22532 -0.1548 12.010000
22533 ha 16776 TPS HA3 22533 0.1282 1.008000
22534 ha 16777 TPS HA2 22534 0.1332 1.008000
22535 ca 16777 TPS CA2 22535 -0.0753 12.010000
22536 ca 16777 TPS CA1 22536 -0.361 12.010000
22537 si 16777 TPS Si 22537 1.1 28.085000
22538 ca 16777 TPS CA6 22538 -0.0753 12.010000
22539 ha 16777 TPS HH6 22539 0.1332 1.008000
22540 ca 16777 TPS CA5 22540 -0.1548 12.010000
22541 ha 16777 TPS HA5 22541 0.1282 1.008000
22542 ca 16777 TPS CA4 22542 -0.1028 12.010000
22543 ha 16777 TPS HA4 22543 0.1262 1.008000
22544 ca 16777 TPS CA3 22544 -0.1548 12.010000
22545 ha 16777 TPS HA3 22545 0.1282 1.008000
22546 ha 16778 TPS HA2 22546 0.1332 1.008000
22547 ca 16778 TPS CA2 22547 -0.0753 12.010000
22548 ca 16778 TPS CA1 22548 -0.361 12.010000
22549 si 16778 TPS Si 22549 1.1 28.085000
22550 ca 16778 TPS CA6 22550 -0.0753 12.010000
22551 ha 16778 TPS HH6 22551 0.1332 1.008000
22552 ca 16778 TPS CA5 22552 -0.1548 12.010000
22553 ha 16778 TPS HA5 22553 0.1282 1.008000
22554 ca 16778 TPS CA4 22554 -0.1028 12.010000
22555 ha 16778 TPS HA4 22555 0.1262 1.008000
22556 ca 16778 TPS CA3 22556 -0.1548 12.010000
22557 ha 16778 TPS HA3 22557 0.1282 1.008000
22558 ha 16779 TPS HA2 22558 0.1332 1.008000
22559 ca 16779 TPS CA2 22559 -0.0753 12.010000
22560 ca 16779 TPS CA1 22560 -0.361 12.010000
22561 si 16779 TPS Si 22561 1.1 28.085000
22562 ca 16779 TPS CA6 22562 -0.0753 12.010000
22563 ha 16779 TPS HH6 22563 0.1332 1.008000
22564 ca 16779 TPS CA5 22564 -0.1548 12.010000
22565 ha 16779 TPS HA5 22565 0.1282 1.008000
22566 ca 16779 TPS CA4 22566 -0.1028 12.010000
22567 ha 16779 TPS HA4 22567 0.1262 1.008000
22568 ca 16779 TPS CA3 22568 -0.1548 12.010000
22569 ha 16779 TPS HA3 22569 0.1282 1.008000
22570 ha 16780 TPS HA2 22570 0.1332 1.008000
22571 ca 16780 TPS CA2 22571 -0.0753 12.010000
22572 ca 16780 TPS CA1 22572 -0.361 12.010000
22573 si 16780 TPS Si 22573 1.1 28.085000
22574 ca 16780 TPS CA6 22574 -0.0753 12.010000
22575 ha 16780 TPS HH6 22575 0.1332 1.008000
22576 ca 16780 TPS CA5 22576 -0.1548 12.010000
22577 ha 16780 TPS HA5 22577 0.1282 1.008000
22578 ca 16780 TPS CA4 22578 -0.1028 12.010000
22579 ha 16780 TPS HA4 22579 0.1262 1.008000
22580 ca 16780 TPS CA3 22580 -0.1548 12.010000
22581 ha 16780 TPS HA3 22581 0.1282 1.008000
22582 ha 16781 TPS HA2 22582 0.1332 1.008000
22583 ca 16781 TPS CA2 22583 -0.0753 12.010000
22584 ca 16781 TPS CA1 22584 -0.361 12.010000
22585 si 16781 TPS Si 22585 1.1 28.085000
22586 ca 16781 TPS CA6 22586 -0.0753 12.010000
22587 ha 16781 TPS HH6 22587 0.1332 1.008000
22588 ca 16781 TPS CA5 22588 -0.1548 12.010000
22589 ha 16781 TPS HA5 22589 0.1282 1.008000
22590 ca 16781 TPS CA4 22590 -0.1028 12.010000
22591 ha 16781 TPS HA4 22591 0.1262 1.008000
22592 ca 16781 TPS CA3 22592 -0.1548 12.010000
22593 ha 16781 TPS HA3 22593 0.1282 1.008000
22594 ha 16782 TPS HA2 22594 0.1332 1.008000
22595 ca 16782 TPS CA2 22595 -0.0753 12.010000
22596 ca 16782 TPS CA1 22596 -0.361 12.010000
22597 si 16782 TPS Si 22597 1.1 28.085000
22598 ca 16782 TPS CA6 22598 -0.0753 12.010000
22599 ha 16782 TPS HH6 22599 0.1332 1.008000
22600 ca 16782 TPS CA5 22600 -0.1548 12.010000
22601 ha 16782 TPS HA5 22601 0.1282 1.008000
22602 ca 16782 TPS CA4 22602 -0.1028 12.010000
22603 ha 16782 TPS HA4 22603 0.1262 1.008000
22604 ca 16782 TPS CA3 22604 -0.1548 12.010000
22605 ha 16782 TPS HA3 22605 0.1282 1.008000
22606 ha 16783 TPS HA2 22606 0.1332 1.008000
22607 ca 16783 TPS CA2 22607 -0.0753 12.010000
22608 ca 16783 TPS CA1 22608 -0.361 12.010000
22609 si 16783 TPS Si 22609 1.1 28.085000
22610 ca 16783 TPS CA6 22610 -0.0753 12.010000
22611 ha 16783 TPS HH6 22611 0.1332 1.008000
22612 ca 16783 TPS CA5 22612 -0.1548 12.010000
22613 ha 16783 TPS HA5 22613 0.1282 1.008000
22614 ca 16783 TPS CA4 22614 -0.1028 12.010000
22615 ha 16783 TPS HA4 22615 0.1262 1.008000
22616 ca 16783 TPS CA3 22616 -0.1548 12.010000
22617 ha 16783 TPS HA3 22617 0.1282 1.008000
22618 ha 16784 TPS HA2 22618 0.1332 1.008000
22619 ca 16784 TPS CA2 22619 -0.0753 12.010000
22620 ca 16784 TPS CA1 22620 -0.361 12.010000
22621 si 16784 TPS Si 22621 1.1 28.085000
22622 ca 16784 TPS CA6 22622 -0.0753 12.010000
22623 ha 16784 TPS HH6 22623 0.1332 1.008000
22624 ca 16784 TPS CA5 22624 -0.1548 12.010000
22625 ha 16784 TPS HA5 22625 0.1282 1.008000
22626 ca 16784 TPS CA4 22626 -0.1028 12.010000
22627 ha 16784 TPS HA4 22627 0.1262 1.008000
22628 ca 16784 TPS CA3 22628 -0.1548 12.010000
22629 ha 16784 TPS HA3 22629 0.1282 1.008000
22630 ha 16785 TPS HA2 22630 0.1332 1.008000
22631 ca 16785 TPS CA2 22631 -0.0753 12.010000
22632 ca 16785 TPS CA1 22632 -0.361 12.010000
22633 si 16785 TPS Si 22633 1.1 28.085000
22634 ca 16785 TPS CA6 22634 -0.0753 12.010000
22635 ha 16785 TPS HH6 22635 0.1332 1.008000
22636 ca 16785 TPS CA5 22636 -0.1548 12.010000
22637 ha 16785 TPS HA5 22637 0.1282 1.008000
22638 ca 16785 TPS CA4 22638 -0.1028 12.010000
22639 ha 16785 TPS HA4 22639 0.1262 1.008000
22640 ca 16785 TPS CA3 22640 -0.1548 12.010000
22641 ha 16785 TPS HA3 22641 0.1282 1.008000
22642 ha 16786 TPS HA2 22642 0.1332 1.008000
22643 ca 16786 TPS CA2 22643 -0.0753 12.010000
22644 ca 16786 TPS CA1 22644 -0.361 12.010000
22645 si 16786 TPS Si 22645 1.1 28.085000
22646 ca 16786 TPS CA6 22646 -0.0753 12.010000
22647 ha 16786 TPS HH6 22647 0.1332 1.008000
22648 ca 16786 TPS CA5 22648 -0.1548 12.010000
22649 ha 16786 TPS HA5 22649 0.1282 1.008000
22650 ca 16786 TPS CA4 22650 -0.1028 12.010000
22651 ha 16786 TPS HA4 22651 0.1262 1.008000
22652 ca 16786 TPS CA3 22652 -0.1548 12.010000
22653 ha 16786 TPS HA3 22653 0.1282 1.008000
22654 ha 16787 TPS HA2 22654 0.1332 1.008000
22655 ca 16787 TPS CA2 22655 -0.0753 12.010000
22656 ca 16787 TPS CA1 22656 -0.361 12.010000
22657 si 16787 TPS Si 22657 1.1 28.085000
22658 ca 16787 TPS CA6 22658 -0.0753 12.010000
22659 ha 16787 TPS HH6 22659 0.1332 1.008000
22660 ca 16787 TPS CA5 22660 -0.1548 12.010000
22661 ha 16787 TPS HA5 22661 0.1282 1.008000
22662 ca 16787 TPS CA4 22662 -0.1028 12.010000
22663 ha 16787 TPS HA4 22663 0.1262 1.008000
22664 ca 16787 TPS CA3 22664 -0.1548 12.010000
22665 ha 16787 TPS HA3 22665 0.1282 1.008000
22666 ha 16788 TPS HA2 22666 0.1332 1.008000
22667 ca 16788 TPS CA2 22667 -0.0753 12.010000
22668 ca 16788 TPS CA1 22668 -0.361 12.010000
22669 si 16788 TPS Si 22669 1.1 28.085000
22670 ca 16788 TPS CA6 22670 -0.0753 12.010000
22671 ha 16788 TPS HH6 22671 0.1332 1.008000
22672 ca 16788 TPS CA5 22672 -0.1548 12.010000
22673 ha 16788 TPS HA5 22673 0.1282 1.008000
22674 ca 16788 TPS CA4 22674 -0.1028 12.010000
22675 ha 16788 TPS HA4 22675 0.1262 1.008000
22676 ca 16788 TPS CA3 22676 -0.1548 12.010000
22677 ha 16788 TPS HA3 22677 0.1282 1.008000
22678 ha 16789 TPS HA2 22678 0.1332 1.008000
22679 ca 16789 TPS CA2 22679 -0.0753 12.010000
22680 ca 16789 TPS CA1 22680 -0.361 12.010000
22681 si 16789 TPS Si 22681 1.1 28.085000
22682 ca 16789 TPS CA6 22682 -0.0753 12.010000
22683 ha 16789 TPS HH6 22683 0.1332 1.008000
22684 ca 16789 TPS CA5 22684 -0.1548 12.010000
22685 ha 16789 TPS HA5 22685 0.1282 1.008000
22686 ca 16789 TPS CA4 22686 -0.1028 12.010000
22687 ha 16789 TPS HA4 22687 0.1262 1.008000
22688 ca 16789 TPS CA3 22688 -0.1548 12.010000
22689 ha 16789 TPS HA3 22689 0.1282 1.008000
22690 ha 16790 TPS HA2 22690 0.1332 1.008000
22691 ca 16790 TPS CA2 22691 -0.0753 12.010000
22692 ca 16790 TPS CA1 22692 -0.361 12.010000
22693 si 16790 TPS Si 22693 1.1 28.085000
22694 ca 16790 TPS CA6 22694 -0.0753 12.010000
22695 ha 16790 TPS HH6 22695 0.1332 1.008000
22696 ca 16790 TPS CA5 22696 -0.1548 12.010000
22697 ha 16790 TPS HA5 22697 0.1282 1.008000
22698 ca 16790 TPS CA4 22698 -0.1028 12.010000
22699 ha 16790 TPS HA4 22699 0.1262 1.008000
22700 ca 16790 TPS CA3 22700 -0.1548 12.010000
22701 ha 16790 TPS HA3 22701 0.1282 1.008000
22702 ha 16791 TPS HA2 22702 0.1332 1.008000
22703 ca 16791 TPS CA2 22703 -0.0753 12.010000
22704 ca 16791 TPS CA1 22704 -0.361 12.010000
22705 si 16791 TPS Si 22705 1.1 28.085000
22706 ca 16791 TPS CA6 22706 -0.0753 12.010000
22707 ha 16791 TPS HH6 22707 0.1332 1.008000
22708 ca 16791 TPS CA5 22708 -0.1548 12.010000
22709 ha 16791 TPS HA5 22709 0.1282 1.008000
22710 ca 16791 TPS CA4 22710 -0.1028 12.010000
22711 ha 16791 TPS HA4 22711 0.1262 1.008000
22712 ca 16791 TPS CA3 22712 -0.1548 12.010000
22713 ha 16791 TPS HA3 22713 0.1282 1.008000
22714 ha 16792 TPS HA2 22714 0.1332 1.008000
22715 ca 16792 TPS CA2 22715 -0.0753 12.010000
22716 ca 16792 TPS CA1 22716 -0.361 12.010000
22717 si 16792 TPS Si 22717 1.1 28.085000
22718 ca 16792 TPS CA6 22718 -0.0753 12.010000
22719 ha 16792 TPS HH6 22719 0.1332 1.008000
22720 ca 16792 TPS CA5 22720 -0.1548 12.010000
22721 ha 16792 TPS HA5 22721 0.1282 1.008000
22722 ca 16792 TPS CA4 22722 -0.1028 12.010000
22723 ha 16792 TPS HA4 22723 0.1262 1.008000
22724 ca 16792 TPS CA3 22724 -0.1548 12.010000
22725 ha 16792 TPS HA3 22725 0.1282 1.008000
22726 ha 16793 TPS HA2 22726 0.1332 1.008000
22727 ca 16793 TPS CA2 22727 -0.0753 12.010000
22728 ca 16793 TPS CA1 22728 -0.361 12.010000
22729 si 16793 TPS Si 22729 1.1 28.085000
22730 ca 16793 TPS CA6 22730 -0.0753 12.010000
22731 ha 16793 TPS HH6 22731 0.1332 1.008000
22732 ca 16793 TPS CA5 22732 -0.1548 12.010000
22733 ha 16793 TPS HA5 22733 0.1282 1.008000
22734 ca 16793 TPS CA4 22734 -0.1028 12.010000
22735 ha 16793 TPS HA4 22735 0.1262 1.008000
22736 ca 16793 TPS CA3 22736 -0.1548 12.010000
22737 ha 16793 TPS HA3 22737 0.1282 1.008000
22738 ha 16794 TPS HA2 22738 0.1332 1.008000
22739 ca 16794 TPS CA2 22739 -0.0753 12.010000
22740 ca 16794 TPS CA1 22740 -0.361 12.010000
22741 si 16794 TPS Si 22741 1.1 28.085000
22742 ca 16794 TPS CA6 22742 -0.0753 12.010000
22743 ha 16794 TPS HH6 22743 0.1332 1.008000
22744 ca 16794 TPS CA5 22744 -0.1548 12.010000
22745 ha 16794 TPS HA5 22745 0.1282 1.008000
22746 ca 16794 TPS CA4 22746 -0.1028 12.010000
22747 ha 16794 TPS HA4 22747 0.1262 1.008000
22748 ca 16794 TPS CA3 22748 -0.1548 12.010000
22749 ha 16794 TPS HA3 22749 0.1282 1.008000
22750 ha 16795 TPS HA2 22750 0.1332 1.008000
22751 ca 16795 TPS CA2 22751 -0.0753 12.010000
22752 ca 16795 TPS CA1 22752 -0.361 12.010000
22753 si 16795 TPS Si 22753 1.1 28.085000
22754 ca 16795 TPS CA6 22754 -0.0753 12.010000
22755 ha 16795 TPS HH6 22755 0.1332 1.008000
22756 ca 16795 TPS CA5 22756 -0.1548 12.010000
22757 ha 16795 TPS HA5 22757 0.1282 1.008000
22758 ca 16795 TPS CA4 22758 -0.1028 12.010000
22759 ha 16795 TPS HA4 22759 0.1262 1.008000
22760 ca 16795 TPS CA3 22760 -0.1548 12.010000
22761 ha 16795 TPS HA3 22761 0.1282 1.008000
22762 ha 16796 TPS HA2 22762 0.1332 1.008000
22763 ca 16796 TPS CA2 22763 -0.0753 12.010000
22764 ca 16796 TPS CA1 22764 -0.361 12.010000
22765 si 16796 TPS Si 22765 1.1 28.085000
22766 ca 16796 TPS CA6 22766 -0.0753 12.010000
22767 ha 16796 TPS HH6 22767 0.1332 1.008000
22768 ca 16796 TPS CA5 22768 -0.1548 12.010000
22769 ha 16796 TPS HA5 22769 0.1282 1.008000
22770 ca 16796 TPS CA4 22770 -0.1028 12.010000
22771 ha 16796 TPS HA4 22771 0.1262 1.008000
22772 ca 16796 TPS CA3 22772 -0.1548 12.010000
22773 ha 16796 TPS HA3 22773 0.1282 1.008000
22774 ha 16797 TPS HA2 22774 0.1332 1.008000
22775 ca 16797 TPS CA2 22775 -0.0753 12.010000
22776 ca 16797 TPS CA1 22776 -0.361 12.010000
22777 si 16797 TPS Si 22777 1.1 28.085000
22778 ca 16797 TPS CA6 22778 -0.0753 12.010000
22779 ha 16797 TPS HH6 22779 0.1332 1.008000
22780 ca 16797 TPS CA5 22780 -0.1548 12.010000
22781 ha 16797 TPS HA5 22781 0.1282 1.008000
22782 ca 16797 TPS CA4 22782 -0.1028 12.010000
22783 ha 16797 TPS HA4 22783 0.1262 1.008000
22784 ca 16797 TPS CA3 22784 -0.1548 12.010000
22785 ha 16797 TPS HA3 22785 0.1282 1.008000
22786 ha 16798 TPS HA2 22786 0.1332 1.008000
22787 ca 16798 TPS CA2 22787 -0.0753 12.010000
22788 ca 16798 TPS CA1 22788 -0.361 12.010000
22789 si 16798 TPS Si 22789 1.1 28.085000
22790 ca 16798 TPS CA6 22790 -0.0753 12.010000
22791 ha 16798 TPS HH6 22791 0.1332 1.008000
22792 ca 16798 TPS CA5 22792 -0.1548 12.010000
22793 ha 16798 TPS HA5 22793 0.1282 1.008000
22794 ca 16798 TPS CA4 22794 -0.1028 12.010000
22795 ha 16798 TPS HA4 22795 0.1262 1.008000
22796 ca 16798 TPS CA3 22796 -0.1548 12.010000
22797 ha 16798 TPS HA3 22797 0.1282 1.008000
22798 ha 16799 TPS HA2 22798 0.1332 1.008000
22799 ca 16799 TPS CA2 22799 -0.0753 12.010000
22800 ca 16799 TPS CA1 22800 -0.361 12.010000
22801 si 16799 TPS Si 22801 1.1 28.085000
22802 ca 16799 TPS CA6 22802 -0.0753 12.010000
22803 ha 16799 TPS HH6 22803 0.1332 1.008000
22804 ca 16799 TPS CA5 22804 -0.1548 12.010000
22805 ha 16799 TPS HA5 22805 0.1282 1.008000
22806 ca 16799 TPS CA4 22806 -0.1028 12.010000
22807 ha 16799 TPS HA4 22807 0.1262 1.008000
22808 ca 16799 TPS CA3 22808 -0.1548 12.010000
22809 ha 16799 TPS HA3 22809 0.1282 1.008000
22810 ha 16800 TPS HA2 22810 0.1332 1.008000
22811 ca 16800 TPS CA2 22811 -0.0753 12.010000
22812 ca 16800 TPS CA1 22812 -0.361 12.010000
22813 si 16800 TPS Si 22813 1.1 28.085000
22814 ca 16800 TPS CA6 22814 -0.0753 12.010000
22815 ha 16800 TPS HH6 22815 0.1332 1.008000
22816 ca 16800 TPS CA5 22816 -0.1548 12.010000
22817 ha 16800 TPS HA5 22817 0.1282 1.008000
22818 ca 16800 TPS CA4 22818 -0.1028 12.010000
22819 ha 16800 TPS HA4 22819 0.1262 1.008000
22820 ca 16800 TPS CA3 22820 -0.1548 12.010000
22821 ha 16800 TPS HA3 22821 0.1282 1.008000
22822 ha 16801 TPS HA2 22822 0.1332 1.008000
22823 ca 16801 TPS CA2 22823 -0.0753 12.010000
22824 ca 16801 TPS CA1 22824 -0.361 12.010000
22825 si 16801 TPS Si 22825 1.1 28.085000
22826 ca 16801 TPS CA6 22826 -0.0753 12.010000
22827 ha 16801 TPS HH6 22827 0.1332 1.008000
22828 ca 16801 TPS CA5 22828 -0.1548 12.010000
22829 ha 16801 TPS HA5 22829 0.1282 1.008000
22830 ca 16801 TPS CA4 22830 -0.1028 12.010000
22831 ha 16801 TPS HA4 22831 0.1262 1.008000
22832 ca 16801 TPS CA3 22832 -0.1548 12.010000
22833 ha 16801 TPS HA3 22833 0.1282 1.008000
22834 ha 16802 TPS HA2 22834 0.1332 1.008000
22835 ca 16802 TPS CA2 22835 -0.0753 12.010000
22836 ca 16802 TPS CA1 22836 -0.361 12.010000
22837 si 16802 TPS Si 22837 1.1 28.085000
22838 ca 16802 TPS CA6 22838 -0.0753 12.010000
22839 ha 16802 TPS HH6 22839 0.1332 1.008000
22840 ca 16802 TPS CA5 22840 -0.1548 12.010000
22841 ha 16802 TPS HA5 22841 0.1282 1.008000
22842 ca 16802 TPS CA4 22842 -0.1028 12.010000
22843 ha 16802 TPS HA4 22843 0.1262 1.008000
22844 ca 16802 TPS CA3 22844 -0.1548 12.010000
22845 ha 16802 TPS HA3 22845 0.1282 1.008000
22846 ha 16803 TPS HA2 22846 0.1332 1.008000
22847 ca 16803 TPS CA2 22847 -0.0753 12.010000
22848 ca 16803 TPS CA1 22848 -0.361 12.010000
22849 si 16803 TPS Si 22849 1.1 28.085000
22850 ca 16803 TPS CA6 22850 -0.0753 12.010000
22851 ha 16803 TPS HH6 22851 0.1332 1.008000
22852 ca 16803 TPS CA5 22852 -0.1548 12.010000
22853 ha 16803 TPS HA5 22853 0.1282 1.008000
22854 ca 16803 TPS CA4 22854 -0.1028 12.010000
22855 ha 16803 TPS HA4 22855 0.1262 1.008000
22856 ca 16803 TPS CA3 22856 -0.1548 12.010000
22857 ha 16803 TPS HA3 22857 0.1282 1.008000
22858 ha 16804 TPS HA2 22858 0.1332 1.008000
22859 ca 16804 TPS CA2 22859 -0.0753 12.010000
22860 ca 16804 TPS CA1 22860 -0.361 12.010000
22861 si 16804 TPS Si 22861 1.1 28.085000
22862 ca 16804 TPS CA6 22862 -0.0753 12.010000
22863 ha 16804 TPS HH6 22863 0.1332 1.008000
22864 ca 16804 TPS CA5 22864 -0.1548 12.010000
22865 ha 16804 TPS HA5 22865 0.1282 1.008000
22866 ca 16804 TPS CA4 22866 -0.1028 12.010000
22867 ha 16804 TPS HA4 22867 0.1262 1.008000
22868 ca 16804 TPS CA3 22868 -0.1548 12.010000
22869 ha 16804 TPS HA3 22869 0.1282 1.008000
22870 ha 16805 TPS HA2 22870 0.1332 1.008000
22871 ca 16805 TPS CA2 22871 -0.0753 12.010000
22872 ca 16805 TPS CA1 22872 -0.361 12.010000
22873 si 16805 TPS Si 22873 1.1 28.085000
22874 ca 16805 TPS CA6 22874 -0.0753 12.010000
22875 ha 16805 TPS HH6 22875 0.1332 1.008000
22876 ca 16805 TPS CA5 22876 -0.1548 12.010000
22877 ha 16805 TPS HA5 22877 0.1282 1.008000
22878 ca 16805 TPS CA4 22878 -0.1028 12.010000
22879 ha 16805 TPS HA4 22879 0.1262 1.008000
22880 ca 16805 TPS CA3 22880 -0.1548 12.010000
22881 ha 16805 TPS HA3 22881 0.1282 1.008000
22882 ha 16806 TPS HA2 22882 0.1332 1.008000
22883 ca 16806 TPS CA2 22883 -0.0753 12.010000
22884 ca 16806 TPS CA1 22884 -0.361 12.010000
22885 si 16806 TPS Si 22885 1.1 28.085000
22886 ca 16806 TPS CA6 22886 -0.0753 12.010000
22887 ha 16806 TPS HH6 22887 0.1332 1.008000
22888 ca 16806 TPS CA5 22888 -0.1548 12.010000
22889 ha 16806 TPS HA5 22889 0.1282 1.008000
22890 ca 16806 TPS CA4 22890 -0.1028 12.010000
22891 ha 16806 TPS HA4 22891 0.1262 1.008000
22892 ca 16806 TPS CA3 22892 -0.1548 12.010000
22893 ha 16806 TPS HA3 22893 0.1282 1.008000
22894 ha 16807 TPS HA2 22894 0.1332 1.008000
22895 ca 16807 TPS CA2 22895 -0.0753 12.010000
22896 ca 16807 TPS CA1 22896 -0.361 12.010000
22897 si 16807 TPS Si 22897 1.1 28.085000
22898 ca 16807 TPS CA6 22898 -0.0753 12.010000
22899 ha 16807 TPS HH6 22899 0.1332 1.008000
22900 ca 16807 TPS CA5 22900 -0.1548 12.010000
22901 ha 16807 TPS HA5 22901 0.1282 1.008000
22902 ca 16807 TPS CA4 22902 -0.1028 12.010000
22903 ha 16807 TPS HA4 22903 0.1262 1.008000
22904 ca 16807 TPS CA3 22904 -0.1548 12.010000
22905 ha 16807 TPS HA3 22905 0.1282 1.008000
22906 ha 16808 TPS HA2 22906 0.1332 1.008000
22907 ca 16808 TPS CA2 22907 -0.0753 12.010000
22908 ca 16808 TPS CA1 22908 -0.361 12.010000
22909 si 16808 TPS Si 22909 1.1 28.085000
22910 ca 16808 TPS CA6 22910 -0.0753 12.010000
22911 ha 16808 TPS HH6 22911 0.1332 1.008000
22912 ca 16808 TPS CA5 22912 -0.1548 12.010000
22913 ha 16808 TPS HA5 22913 0.1282 1.008000
22914 ca 16808 TPS CA4 22914 -0.1028 12.010000
22915 ha 16808 TPS HA4 22915 0.1262 1.008000
22916 ca 16808 TPS CA3 22916 -0.1548 12.010000
22917 ha 16808 TPS HA3 22917 0.1282 1.008000
22918 ha 16809 TPS HA2 22918 0.1332 1.008000
22919 ca 16809 TPS CA2 22919 -0.0753 12.010000
22920 ca 16809 TPS CA1 22920 -0.361 12.010000
22921 si 16809 TPS Si 22921 1.1 28.085000
22922 ca 16809 TPS CA6 22922 -0.0753 12.010000
22923 ha 16809 TPS HH6 22923 0.1332 1.008000
22924 ca 16809 TPS CA5 22924 -0.1548 12.010000
22925 ha 16809 TPS HA5 22925 0.1282 1.008000
22926 ca 16809 TPS CA4 22926 -0.1028 12.010000
22927 ha 16809 TPS HA4 22927 0.1262 1.008000
22928 ca 16809 TPS CA3 22928 -0.1548 12.010000
22929 ha 16809 TPS HA3 22929 0.1282 1.008000
22930 ha 16810 TPS HA2 22930 0.1332 1.008000
22931 ca 16810 TPS CA2 22931 -0.0753 12.010000
22932 ca 16810 TPS CA1 22932 -0.361 12.010000
22933 si 16810 TPS Si 22933 1.1 28.085000
22934 ca 16810 TPS CA6 22934 -0.0753 12.010000
22935 ha 16810 TPS HH6 22935 0.1332 1.008000
22936 ca 16810 TPS CA5 22936 -0.1548 12.010000
22937 ha 16810 TPS HA5 22937 0.1282 1.008000
22938 ca 16810 TPS CA4 22938 -0.1028 12.010000
22939 ha 16810 TPS HA4 22939 0.1262 1.008000
22940 ca 16810 TPS CA3 22940 -0.1548 12.010000
22941 ha 16810 TPS HA3 22941 0.1282 1.008000
22942 ha 16811 TPS HA2 22942 0.1332 1.008000
22943 ca 16811 TPS CA2 22943 -0.0753 12.010000
22944 ca 16811 TPS CA1 22944 -0.361 12.010000
22945 si 16811 TPS Si 22945 1.1 28.085000
22946 ca 16811 TPS CA6 22946 -0.0753 12.010000
22947 ha 16811 TPS HH6 22947 0.1332 1.008000
22948 ca 16811 TPS CA5 22948 -0.1548 12.010000
22949 ha 16811 TPS HA5 22949 0.1282 1.008000
22950 ca 16811 TPS CA4 22950 -0.1028 12.010000
22951 ha 16811 TPS HA4 22951 0.1262 1.008000
22952 ca 16811 TPS CA3 22952 -0.1548 12.010000
22953 ha 16811 TPS HA3 22953 0.1282 1.008000
22954 ha 16812 TPS HA2 22954 0.1332 1.008000
22955 ca 16812 TPS CA2 22955 -0.0753 12.010000
22956 ca 16812 TPS CA1 22956 -0.361 12.010000
22957 si 16812 TPS Si 22957 1.1 28.085000
22958 ca 16812 TPS CA6 22958 -0.0753 12.010000
22959 ha 16812 TPS HH6 22959 0.1332 1.008000
22960 ca 16812 TPS CA5 22960 -0.1548 12.010000
22961 ha 16812 TPS HA5 22961 0.1282 1.008000
22962 ca 16812 TPS CA4 22962 -0.1028 12.010000
22963 ha 16812 TPS HA4 22963 0.1262 1.008000
22964 ca 16812 TPS CA3 22964 -0.1548 12.010000
22965 ha 16812 TPS HA3 22965 0.1282 1.008000
22966 ha 16813 TPS HA2 22966 0.1332 1.008000
22967 ca 16813 TPS CA2 22967 -0.0753 12.010000
22968 ca 16813 TPS CA1 22968 -0.361 12.010000
22969 si 16813 TPS Si 22969 1.1 28.085000
22970 ca 16813 TPS CA6 22970 -0.0753 12.010000
22971 ha 16813 TPS HH6 22971 0.1332 1.008000
22972 ca 16813 TPS CA5 22972 -0.1548 12.010000
22973 ha 16813 TPS HA5 22973 0.1282 1.008000
22974 ca 16813 TPS CA4 22974 -0.1028 12.010000
22975 ha 16813 TPS HA4 22975 0.1262 1.008000
22976 ca 16813 TPS CA3 22976 -0.1548 12.010000
22977 ha 16813 TPS HA3 22977 0.1282 1.008000
22978 ha 16814 TPS HA2 22978 0.1332 1.008000
22979 ca 16814 TPS CA2 22979 -0.0753 12.010000
22980 ca 16814 TPS CA1 22980 -0.361 12.010000
22981 si 16814 TPS Si 22981 1.1 28.085000
22982 ca 16814 TPS CA6 22982 -0.0753 12.010000
22983 ha 16814 TPS HH6 22983 0.1332 1.008000
22984 ca 16814 TPS CA5 22984 -0.1548 12.010000
22985 ha 16814 TPS HA5 22985 0.1282 1.008000
22986 ca 16814 TPS CA4 22986 -0.1028 12.010000
22987 ha 16814 TPS HA4 22987 0.1262 1.008000
22988 ca 16814 TPS CA3 22988 -0.1548 12.010000
22989 ha 16814 TPS HA3 22989 0.1282 1.008000
22990 ha 16815 TPS HA2 22990 0.1332 1.008000
22991 ca 16815 TPS CA2 22991 -0.0753 12.010000
22992 ca 16815 TPS CA1 22992 -0.361 12.010000
22993 si 16815 TPS Si 22993 1.1 28.085000
22994 ca 16815 TPS CA6 22994 -0.0753 12.010000
22995 ha 16815 TPS HH6 22995 0.1332 1.008000
22996 ca 16815 TPS CA5 22996 -0.1548 12.010000
22997 ha 16815 TPS HA5 22997 0.1282 1.008000
22998 ca 16815 TPS CA4 22998 -0.1028 12.010000
22999 ha 16815 TPS HA4 22999 0.1262 1.008000
23000 ca 16815 TPS CA3 23000 -0.1548 12.010000
23001 ha 16815 TPS HA3 23001 0.1282 1.008000
23002 ha 16816 TPS HA2 23002 0.1332 1.008000
23003 ca 16816 TPS CA2 23003 -0.0753 12.010000
23004 ca 16816 TPS CA1 23004 -0.361 12.010000
23005 si 16816 TPS Si 23005 1.1 28.085000
23006 ca 16816 TPS CA6 23006 -0.0753 12.010000
23007 ha 16816 TPS HH6 23007 0.1332 1.008000
23008 ca 16816 TPS CA5 23008 -0.1548 12.010000
23009 ha 16816 TPS HA5 23009 0.1282 1.008000
23010 ca 16816 TPS CA4 23010 -0.1028 12.010000
23011 ha 16816 TPS HA4 23011 0.1262 1.008000
23012 ca 16816 TPS CA3 23012 -0.1548 12.010000
23013 ha 16816 TPS HA3 23013 0.1282 1.008000
23014 ha 16817 TPS HA2 23014 0.1332 1.008000
23015 ca 16817 TPS CA2 23015 -0.0753 12.010000
23016 ca 16817 TPS CA1 23016 -0.361 12.010000
23017 si 16817 TPS Si 23017 1.1 28.085000
23018 ca 16817 TPS CA6 23018 -0.0753 12.010000
23019 ha 16817 TPS HH6 23019 0.1332 1.008000
23020 ca 16817 TPS CA5 23020 -0.1548 12.010000
23021 ha 16817 TPS HA5 23021 0.1282 1.008000
23022 ca 16817 TPS CA4 23022 -0.1028 12.010000
23023 ha 16817 TPS HA4 23023 0.1262 1.008000
23024 ca 16817 TPS CA3 23024 -0.1548 12.010000
23025 ha 16817 TPS HA3 23025 0.1282 1.008000
23026 ha 16818 TPS HA2 23026 0.1332 1.008000
23027 ca 16818 TPS CA2 23027 -0.0753 12.010000
23028 ca 16818 TPS CA1 23028 -0.361 12.010000
23029 si 16818 TPS Si 23029 1.1 28.085000
23030 ca 16818 TPS CA6 23030 -0.0753 12.010000
23031 ha 16818 TPS HH6 23031 0.1332 1.008000
23032 ca 16818 TPS CA5 23032 -0.1548 12.010000
23033 ha 16818 TPS HA5 23033 0.1282 1.008000
23034 ca 16818 TPS CA4 23034 -0.1028 12.010000
23035 ha 16818 TPS HA4 23035 0.1262 1.008000
23036 ca 16818 TPS CA3 23036 -0.1548 12.010000
23037 ha 16818 TPS HA3 23037 0.1282 1.008000
23038 ha 16819 TPS HA2 23038 0.1332 1.008000
23039 ca 16819 TPS CA2 23039 -0.0753 12.010000
23040 ca 16819 TPS CA1 23040 -0.361 12.010000
23041 si 16819 TPS Si 23041 1.1 28.085000
23042 ca 16819 TPS CA6 23042 -0.0753 12.010000
23043 ha 16819 TPS HH6 23043 0.1332 1.008000
23044 ca 16819 TPS CA5 23044 -0.1548 12.010000
23045 ha 16819 TPS HA5 23045 0.1282 1.008000
23046 ca 16819 TPS CA4 23046 -0.1028 12.010000
23047 ha 16819 TPS HA4 23047 0.1262 1.008000
23048 ca 16819 TPS CA3 23048 -0.1548 12.010000
23049 ha 16819 TPS HA3 23049 0.1282 1.008000
23050 ha 16820 TPS HA2 23050 0.1332 1.008000
23051 ca 16820 TPS CA2 23051 -0.0753 12.010000
23052 ca 16820 TPS CA1 23052 -0.361 12.010000
23053 si 16820 TPS Si 23053 1.1 28.085000
23054 ca 16820 TPS CA6 23054 -0.0753 12.010000
23055 ha 16820 TPS HH6 23055 0.1332 1.008000
23056 ca 16820 TPS CA5 23056 -0.1548 12.010000
23057 ha 16820 TPS HA5 23057 0.1282 1.008000
23058 ca 16820 TPS CA4 23058 -0.1028 12.010000
23059 ha 16820 TPS HA4 23059 0.1262 1.008000
23060 ca 16820 TPS CA3 23060 -0.1548 12.010000
23061 ha 16820 TPS HA3 23061 0.1282 1.008000
23062 ha 16821 TPS HA2 23062 0.1332 1.008000
23063 ca 16821 TPS CA2 23063 -0.0753 12.010000
23064 ca 16821 TPS CA1 23064 -0.361 12.010000
23065 si 16821 TPS Si 23065 1.1 28.085000
23066 ca 16821 TPS CA6 23066 -0.0753 12.010000
23067 ha 16821 TPS HH6 23067 0.1332 1.008000
23068 ca 16821 TPS CA5 23068 -0.1548 12.010000
23069 ha 16821 TPS HA5 23069 0.1282 1.008000
23070 ca 16821 TPS CA4 23070 -0.1028 12.010000
23071 ha 16821 TPS HA4 23071 0.1262 1.008000
23072 ca 16821 TPS CA3 23072 -0.1548 12.010000
23073 ha 16821 TPS HA3 23073 0.1282 1.008000
23074 ha 16822 TPS HA2 23074 0.1332 1.008000
23075 ca 16822 TPS CA2 23075 -0.0753 12.010000
23076 ca 16822 TPS CA1 23076 -0.361 12.010000
23077 si 16822 TPS Si 23077 1.1 28.085000
23078 ca 16822 TPS CA6 23078 -0.0753 12.010000
23079 ha 16822 TPS HH6 23079 0.1332 1.008000
23080 ca 16822 TPS CA5 23080 -0.1548 12.010000
23081 ha 16822 TPS HA5 23081 0.1282 1.008000
23082 ca 16822 TPS CA4 23082 -0.1028 12.010000
23083 ha 16822 TPS HA4 23083 0.1262 1.008000
23084 ca 16822 TPS CA3 23084 -0.1548 12.010000
23085 ha 16822 TPS HA3 23085 0.1282 1.008000
23086 ha 16823 TPS HA2 23086 0.1332 1.008000
23087 ca 16823 TPS CA2 23087 -0.0753 12.010000
23088 ca 16823 TPS CA1 23088 -0.361 12.010000
23089 si 16823 TPS Si 23089 1.1 28.085000
23090 ca 16823 TPS CA6 23090 -0.0753 12.010000
23091 ha 16823 TPS HH6 23091 0.1332 1.008000
23092 ca 16823 TPS CA5 23092 -0.1548 12.010000
23093 ha 16823 TPS HA5 23093 0.1282 1.008000
23094 ca 16823 TPS CA4 23094 -0.1028 12.010000
23095 ha 16823 TPS HA4 23095 0.1262 1.008000
23096 ca 16823 TPS CA3 23096 -0.1548 12.010000
23097 ha 16823 TPS HA3 23097 0.1282 1.008000
23098 ha 16824 TPS HA2 23098 0.1332 1.008000
23099 ca 16824 TPS CA2 23099 -0.0753 12.010000
23100 ca 16824 TPS CA1 23100 -0.361 12.010000
23101 si 16824 TPS Si 23101 1.1 28.085000
23102 ca 16824 TPS CA6 23102 -0.0753 12.010000
23103 ha 16824 TPS HH6 23103 0.1332 1.008000
23104 ca 16824 TPS CA5 23104 -0.1548 12.010000
23105 ha 16824 TPS HA5 23105 0.1282 1.008000
23106 ca 16824 TPS CA4 23106 -0.1028 12.010000
23107 ha 16824 TPS HA4 23107 0.1262 1.008000
23108 ca 16824 TPS CA3 23108 -0.1548 12.010000
23109 ha 16824 TPS HA3 23109 0.1282 1.008000
23110 ha 16825 TPS HA2 23110 0.1332 1.008000
23111 ca 16825 TPS CA2 23111 -0.0753 12.010000
23112 ca 16825 TPS CA1 23112 -0.361 12.010000
23113 si 16825 TPS Si 23113 1.1 28.085000
23114 ca 16825 TPS CA6 23114 -0.0753 12.010000
23115 ha 16825 TPS HH6 23115 0.1332 1.008000
23116 ca 16825 TPS CA5 23116 -0.1548 12.010000
23117 ha 16825 TPS HA5 23117 0.1282 1.008000
23118 ca 16825 TPS CA4 23118 -0.1028 12.010000
23119 ha 16825 TPS HA4 23119 0.1262 1.008000
23120 ca 16825 TPS CA3 23120 -0.1548 12.010000
23121 ha 16825 TPS HA3 23121 0.1282 1.008000
23122 ha 16826 TPS HA2 23122 0.1332 1.008000
23123 ca 16826 TPS CA2 23123 -0.0753 12.010000
23124 ca 16826 TPS CA1 23124 -0.361 12.010000
23125 si 16826 TPS Si 23125 1.1 28.085000
23126 ca 16826 TPS CA6 23126 -0.0753 12.010000
23127 ha 16826 TPS HH6 23127 0.1332 1.008000
23128 ca 16826 TPS CA5 23128 -0.1548 12.010000
23129 ha 16826 TPS HA5 23129 0.1282 1.008000
23130 ca 16826 TPS CA4 23130 -0.1028 12.010000
23131 ha 16826 TPS HA4 23131 0.1262 1.008000
23132 ca 16826 TPS CA3 23132 -0.1548 12.010000
23133 ha 16826 TPS HA3 23133 0.1282 1.008000
23134 ha 16827 TPS HA2 23134 0.1332 1.008000
23135 ca 16827 TPS CA2 23135 -0.0753 12.010000
23136 ca 16827 TPS CA1 23136 -0.361 12.010000
23137 si 16827 TPS Si 23137 1.1 28.085000
23138 ca 16827 TPS CA6 23138 -0.0753 12.010000
23139 ha 16827 TPS HH6 23139 0.1332 1.008000
23140 ca 16827 TPS CA5 23140 -0.1548 12.010000
23141 ha 16827 TPS HA5 23141 0.1282 1.008000
23142 ca 16827 TPS CA4 23142 -0.1028 12.010000
23143 ha 16827 TPS HA4 23143 0.1262 1.008000
23144 ca 16827 TPS CA3 23144 -0.1548 12.010000
23145 ha 16827 TPS HA3 23145 0.1282 1.008000
23146 ha 16828 TPS HA2 23146 0.1332 1.008000
23147 ca 16828 TPS CA2 23147 -0.0753 12.010000
23148 ca 16828 TPS CA1 23148 -0.361 12.010000
23149 si 16828 TPS Si 23149 1.1 28.085000
23150 ca 16828 TPS CA6 23150 -0.0753 12.010000
23151 ha 16828 TPS HH6 23151 0.1332 1.008000
23152 ca 16828 TPS CA5 23152 -0.1548 12.010000
23153 ha 16828 TPS HA5 23153 0.1282 1.008000
23154 ca 16828 TPS CA4 23154 -0.1028 12.010000
23155 ha 16828 TPS HA4 23155 0.1262 1.008000
23156 ca 16828 TPS CA3 23156 -0.1548 12.010000
23157 ha 16828 TPS HA3 23157 0.1282 1.008000
23158 ha 16829 TPS HA2 23158 0.1332 1.008000
23159 ca 16829 TPS CA2 23159 -0.0753 12.010000
23160 ca 16829 TPS CA1 23160 -0.361 12.010000
23161 si 16829 TPS Si 23161 1.1 28.085000
23162 ca 16829 TPS CA6 23162 -0.0753 12.010000
23163 ha 16829 TPS HH6 23163 0.1332 1.008000
23164 ca 16829 TPS CA5 23164 -0.1548 12.010000
23165 ha 16829 TPS HA5 23165 0.1282 1.008000
23166 ca 16829 TPS CA4 23166 -0.1028 12.010000
23167 ha 16829 TPS HA4 23167 0.1262 1.008000
23168 ca 16829 TPS CA3 23168 -0.1548 12.010000
23169 ha 16829 TPS HA3 23169 0.1282 1.008000
23170 ha 16830 TPS HA2 23170 0.1332 1.008000
23171 ca 16830 TPS CA2 23171 -0.0753 12.010000
23172 ca 16830 TPS CA1 23172 -0.361 12.010000
23173 si 16830 TPS Si 23173 1.1 28.085000
23174 ca 16830 TPS CA6 23174 -0.0753 12.010000
23175 ha 16830 TPS HH6 23175 0.1332 1.008000
23176 ca 16830 TPS CA5 23176 -0.1548 12.010000
23177 ha 16830 TPS HA5 23177 0.1282 1.008000
23178 ca 16830 TPS CA4 23178 -0.1028 12.010000
23179 ha 16830 TPS HA4 23179 0.1262 1.008000
23180 ca 16830 TPS CA3 23180 -0.1548 12.010000
23181 ha 16830 TPS HA3 23181 0.1282 1.008000
23182 ha 16831 TPS HA2 23182 0.1332 1.008000
23183 ca 16831 TPS CA2 23183 -0.0753 12.010000
23184 ca 16831 TPS CA1 23184 -0.361 12.010000
23185 si 16831 TPS Si 23185 1.1 28.085000
23186 ca 16831 TPS CA6 23186 -0.0753 12.010000
23187 ha 16831 TPS HH6 23187 0.1332 1.008000
23188 ca 16831 TPS CA5 23188 -0.1548 12.010000
23189 ha 16831 TPS HA5 23189 0.1282 1.008000
23190 ca 16831 TPS CA4 23190 -0.1028 12.010000
23191 ha 16831 TPS HA4 23191 0.1262 1.008000
23192 ca 16831 TPS CA3 23192 -0.1548 12.010000
23193 ha 16831 TPS HA3 23193 0.1282 1.008000
23194 ha 16832 TPS HA2 23194 0.1332 1.008000
23195 ca 16832 TPS CA2 23195 -0.0753 12.010000
23196 ca 16832 TPS CA1 23196 -0.361 12.010000
23197 si 16832 TPS Si 23197 1.1 28.085000
23198 ca 16832 TPS CA6 23198 -0.0753 12.010000
23199 ha 16832 TPS HH6 23199 0.1332 1.008000
23200 ca 16832 TPS CA5 23200 -0.1548 12.010000
23201 ha 16832 TPS HA5 23201 0.1282 1.008000
23202 ca 16832 TPS CA4 23202 -0.1028 12.010000
23203 ha 16832 TPS HA4 23203 0.1262 1.008000
23204 ca 16832 TPS CA3 23204 -0.1548 12.010000
23205 ha 16832 TPS HA3 23205 0.1282 1.008000
23206 ha 16833 TPS HA2 23206 0.1332 1.008000
23207 ca 16833 TPS CA2 23207 -0.0753 12.010000
23208 ca 16833 TPS CA1 23208 -0.361 12.010000
23209 si 16833 TPS Si 23209 1.1 28.085000
23210 ca 16833 TPS CA6 23210 -0.0753 12.010000
23211 ha 16833 TPS HH6 23211 0.1332 1.008000
23212 ca 16833 TPS CA5 23212 -0.1548 12.010000
23213 ha 16833 TPS HA5 23213 0.1282 1.008000
23214 ca 16833 TPS CA4 23214 -0.1028 12.010000
23215 ha 16833 TPS HA4 23215 0.1262 1.008000
23216 ca 16833 TPS CA3 23216 -0.1548 12.010000
23217 ha 16833 TPS HA3 23217 0.1282 1.008000
23218 ha 16834 TPS HA2 23218 0.1332 1.008000
23219 ca 16834 TPS CA2 23219 -0.0753 12.010000
23220 ca 16834 TPS CA1 23220 -0.361 12.010000
23221 si 16834 TPS Si 23221 1.1 28.085000
23222 ca 16834 TPS CA6 23222 -0.0753 12.010000
23223 ha 16834 TPS HH6 23223 0.1332 1.008000
23224 ca 16834 TPS CA5 23224 -0.1548 12.010000
23225 ha 16834 TPS HA5 23225 0.1282 1.008000
23226 ca 16834 TPS CA4 23226 -0.1028 12.010000
23227 ha 16834 TPS HA4 23227 0.1262 1.008000
23228 ca 16834 TPS CA3 23228 -0.1548 12.010000
23229 ha 16834 TPS HA3 23229 0.1282 1.008000
23230 ha 16835 TPS HA2 23230 0.1332 1.008000
23231 ca 16835 TPS CA2 23231 -0.0753 12.010000
23232 ca 16835 TPS CA1 23232 -0.361 12.010000
23233 si 16835 TPS Si 23233 1.1 28.085000
23234 ca 16835 TPS CA6 23234 -0.0753 12.010000
23235 ha 16835 TPS HH6 23235 0.1332 1.008000
23236 ca 16835 TPS CA5 23236 -0.1548 12.010000
23237 ha 16835 TPS HA5 23237 0.1282 1.008000
23238 ca 16835 TPS CA4 23238 -0.1028 12.010000
23239 ha 16835 TPS HA4 23239 0.1262 1.008000
23240 ca 16835 TPS CA3 23240 -0.1548 12.010000
23241 ha 16835 TPS HA3 23241 0.1282 1.008000
23242 ha 16836 TPS HA2 23242 0.1332 1.008000
23243 ca 16836 TPS CA2 23243 -0.0753 12.010000
23244 ca 16836 TPS CA1 23244 -0.361 12.010000
23245 si 16836 TPS Si 23245 1.1 28.085000
23246 ca 16836 TPS CA6 23246 -0.0753 12.010000
23247 ha 16836 TPS HH6 23247 0.1332 1.008000
23248 ca 16836 TPS CA5 23248 -0.1548 12.010000
23249 ha 16836 TPS HA5 23249 0.1282 1.008000
23250 ca 16836 TPS CA4 23250 -0.1028 12.010000
23251 ha 16836 TPS HA4 23251 0.1262 1.008000
23252 ca 16836 TPS CA3 23252 -0.1548 12.010000
23253 ha 16836 TPS HA3 23253 0.1282 1.008000
23254 ha 16837 TPS HA2 23254 0.1332 1.008000
23255 ca 16837 TPS CA2 23255 -0.0753 12.010000
23256 ca 16837 TPS CA1 23256 -0.361 12.010000
23257 si 16837 TPS Si 23257 1.1 28.085000
23258 ca 16837 TPS CA6 23258 -0.0753 12.010000
23259 ha 16837 TPS HH6 23259 0.1332 1.008000
23260 ca 16837 TPS CA5 23260 -0.1548 12.010000
23261 ha 16837 TPS HA5 23261 0.1282 1.008000
23262 ca 16837 TPS CA4 23262 -0.1028 12.010000
23263 ha 16837 TPS HA4 23263 0.1262 1.008000
23264 ca 16837 TPS CA3 23264 -0.1548 12.010000
23265 ha 16837 TPS HA3 23265 0.1282 1.008000
23266 ha 16838 TPS HA2 23266 0.1332 1.008000
23267 ca 16838 TPS CA2 23267 -0.0753 12.010000
23268 ca 16838 TPS CA1 23268 -0.361 12.010000
23269 si 16838 TPS Si 23269 1.1 28.085000
23270 ca 16838 TPS CA6 23270 -0.0753 12.010000
23271 ha 16838 TPS HH6 23271 0.1332 1.008000
23272 ca 16838 TPS CA5 23272 -0.1548 12.010000
23273 ha 16838 TPS HA5 23273 0.1282 1.008000
23274 ca 16838 TPS CA4 23274 -0.1028 12.010000
23275 ha 16838 TPS HA4 23275 0.1262 1.008000
23276 ca 16838 TPS CA3 23276 -0.1548 12.010000
23277 ha 16838 TPS HA3 23277 0.1282 1.008000
23278 ha 16839 TPS HA2 23278 0.1332 1.008000
23279 ca 16839 TPS CA2 23279 -0.0753 12.010000
23280 ca 16839 TPS CA1 23280 -0.361 12.010000
23281 si 16839 TPS Si 23281 1.1 28.085000
23282 ca 16839 TPS CA6 23282 -0.0753 12.010000
23283 ha 16839 TPS HH6 23283 0.1332 1.008000
23284 ca 16839 TPS CA5 23284 -0.1548 12.010000
23285 ha 16839 TPS HA5 23285 0.1282 1.008000
23286 ca 16839 TPS CA4 23286 -0.1028 12.010000
23287 ha 16839 TPS HA4 23287 0.1262 1.008000
23288 ca 16839 TPS CA3 23288 -0.1548 12.010000
23289 ha 16839 TPS HA3 23289 0.1282 1.008000
23290 ha 16840 TPS HA2 23290 0.1332 1.008000
23291 ca 16840 TPS CA2 23291 -0.0753 12.010000
23292 ca 16840 TPS CA1 23292 -0.361 12.010000
23293 si 16840 TPS Si 23293 1.1 28.085000
23294 ca 16840 TPS CA6 23294 -0.0753 12.010000
23295 ha 16840 TPS HH6 23295 0.1332 1.008000
23296 ca 16840 TPS CA5 23296 -0.1548 12.010000
23297 ha 16840 TPS HA5 23297 0.1282 1.008000
23298 ca 16840 TPS CA4 23298 -0.1028 12.010000
23299 ha 16840 TPS HA4 23299 0.1262 1.008000
23300 ca 16840 TPS CA3 23300 -0.1548 12.010000
23301 ha 16840 TPS HA3 23301 0.1282 1.008000
23302 ha 16841 TPS HA2 23302 0.1332 1.008000
23303 ca 16841 TPS CA2 23303 -0.0753 12.010000
23304 ca 16841 TPS CA1 23304 -0.361 12.010000
23305 si 16841 TPS Si 23305 1.1 28.085000
23306 ca 16841 TPS CA6 23306 -0.0753 12.010000
23307 ha 16841 TPS HH6 23307 0.1332 1.008000
23308 ca 16841 TPS CA5 23308 -0.1548 12.010000
23309 ha 16841 TPS HA5 23309 0.1282 1.008000
23310 ca 16841 TPS CA4 23310 -0.1028 12.010000
23311 ha 16841 TPS HA4 23311 0.1262 1.008000
23312 ca 16841 TPS CA3 23312 -0.1548 12.010000
23313 ha 16841 TPS HA3 23313 0.1282 1.008000
23314 ha 16842 TPS HA2 23314 0.1332 1.008000
23315 ca 16842 TPS CA2 23315 -0.0753 12.010000
23316 ca 16842 TPS CA1 23316 -0.361 12.010000
23317 si 16842 TPS Si 23317 1.1 28.085000
23318 ca 16842 TPS CA6 23318 -0.0753 12.010000
23319 ha 16842 TPS HH6 23319 0.1332 1.008000
23320 ca 16842 TPS CA5 23320 -0.1548 12.010000
23321 ha 16842 TPS HA5 23321 0.1282 1.008000
23322 ca 16842 TPS CA4 23322 -0.1028 12.010000
23323 ha 16842 TPS HA4 23323 0.1262 1.008000
23324 ca 16842 TPS CA3 23324 -0.1548 12.010000
23325 ha 16842 TPS HA3 23325 0.1282 1.008000
23326 ha 16843 TPS HA2 23326 0.1332 1.008000
23327 ca 16843 TPS CA2 23327 -0.0753 12.010000
23328 ca 16843 TPS CA1 23328 -0.361 12.010000
23329 si 16843 TPS Si 23329 1.1 28.085000
23330 ca 16843 TPS CA6 23330 -0.0753 12.010000
23331 ha 16843 TPS HH6 23331 0.1332 1.008000
23332 ca 16843 TPS CA5 23332 -0.1548 12.010000
23333 ha 16843 TPS HA5 23333 0.1282 1.008000
23334 ca 16843 TPS CA4 23334 -0.1028 12.010000
23335 ha 16843 TPS HA4 23335 0.1262 1.008000
23336 ca 16843 TPS CA3 23336 -0.1548 12.010000
23337 ha 16843 TPS HA3 23337 0.1282 1.008000
23338 ha 16844 TPS HA2 23338 0.1332 1.008000
23339 ca 16844 TPS CA2 23339 -0.0753 12.010000
23340 ca 16844 TPS CA1 23340 -0.361 12.010000
23341 si 16844 TPS Si 23341 1.1 28.085000
23342 ca 16844 TPS CA6 23342 -0.0753 12.010000
23343 ha 16844 TPS HH6 23343 0.1332 1.008000
23344 ca 16844 TPS CA5 23344 -0.1548 12.010000
23345 ha 16844 TPS HA5 23345 0.1282 1.008000
23346 ca 16844 TPS CA4 23346 -0.1028 12.010000
23347 ha 16844 TPS HA4 23347 0.1262 1.008000
23348 ca 16844 TPS CA3 23348 -0.1548 12.010000
23349 ha 16844 TPS HA3 23349 0.1282 1.008000
23350 ha 16845 TPS HA2 23350 0.1332 1.008000
23351 ca 16845 TPS CA2 23351 -0.0753 12.010000
23352 ca 16845 TPS CA1 23352 -0.361 12.010000
23353 si 16845 TPS Si 23353 1.1 28.085000
23354 ca 16845 TPS CA6 23354 -0.0753 12.010000
23355 ha 16845 TPS HH6 23355 0.1332 1.008000
23356 ca 16845 TPS CA5 23356 -0.1548 12.010000
23357 ha 16845 TPS HA5 23357 0.1282 1.008000
23358 ca 16845 TPS CA4 23358 -0.1028 12.010000
23359 ha 16845 TPS HA4 23359 0.1262 1.008000
23360 ca 16845 TPS CA3 23360 -0.1548 12.010000
23361 ha 16845 TPS HA3 23361 0.1282 1.008000
23362 ha 16846 TPS HA2 23362 0.1332 1.008000
23363 ca 16846 TPS CA2 23363 -0.0753 12.010000
23364 ca 16846 TPS CA1 23364 -0.361 12.010000
23365 si 16846 TPS Si 23365 1.1 28.085000
23366 ca 16846 TPS CA6 23366 -0.0753 12.010000
23367 ha 16846 TPS HH6 23367 0.1332 1.008000
23368 ca 16846 TPS CA5 23368 -0.1548 12.010000
23369 ha 16846 TPS HA5 23369 0.1282 1.008000
23370 ca 16846 TPS CA4 23370 -0.1028 12.010000
23371 ha 16846 TPS HA4 23371 0.1262 1.008000
23372 ca 16846 TPS CA3 23372 -0.1548 12.010000
23373 ha 16846 TPS HA3 23373 0.1282 1.008000
23374 ha 16847 TPS HA2 23374 0.1332 1.008000
23375 ca 16847 TPS CA2 23375 -0.0753 12.010000
23376 ca 16847 TPS CA1 23376 -0.361 12.010000
23377 si 16847 TPS Si 23377 1.1 28.085000
23378 ca 16847 TPS CA6 23378 -0.0753 12.010000
23379 ha 16847 TPS HH6 23379 0.1332 1.008000
23380 ca 16847 TPS CA5 23380 -0.1548 12.010000
23381 ha 16847 TPS HA5 23381 0.1282 1.008000
23382 ca 16847 TPS CA4 23382 -0.1028 12.010000
23383 ha 16847 TPS HA4 23383 0.1262 1.008000
23384 ca 16847 TPS CA3 23384 -0.1548 12.010000
23385 ha 16847 TPS HA3 23385 0.1282 1.008000
23386 ha 16848 TPS HA2 23386 0.1332 1.008000
23387 ca 16848 TPS CA2 23387 -0.0753 12.010000
23388 ca 16848 TPS CA1 23388 -0.361 12.010000
23389 si 16848 TPS Si 23389 1.1 28.085000
23390 ca 16848 TPS CA6 23390 -0.0753 12.010000
23391 ha 16848 TPS HH6 23391 0.1332 1.008000
23392 ca 16848 TPS CA5 23392 -0.1548 12.010000
23393 ha 16848 TPS HA5 23393 0.1282 1.008000
23394 ca 16848 TPS CA4 23394 -0.1028 12.010000
23395 ha 16848 TPS HA4 23395 0.1262 1.008000
23396 ca 16848 TPS CA3 23396 -0.1548 12.010000
23397 ha 16848 TPS HA3 23397 0.1282 1.008000
23398 ha 16849 TPS HA2 23398 0.1332 1.008000
23399 ca 16849 TPS CA2 23399 -0.0753 12.010000
23400 ca 16849 TPS CA1 23400 -0.361 12.010000
23401 si 16849 TPS Si 23401 1.1 28.085000
23402 ca 16849 TPS CA6 23402 -0.0753 12.010000
23403 ha 16849 TPS HH6 23403 0.1332 1.008000
23404 ca 16849 TPS CA5 23404 -0.1548 12.010000
23405 ha 16849 TPS HA5 23405 0.1282 1.008000
23406 ca 16849 TPS CA4 23406 -0.1028 12.010000
23407 ha 16849 TPS HA4 23407 0.1262 1.008000
23408 ca 16849 TPS CA3 23408 -0.1548 12.010000
23409 ha 16849 TPS HA3 23409 0.1282 1.008000
23410 ha 16850 TPS HA2 23410 0.1332 1.008000
23411 ca 16850 TPS CA2 23411 -0.0753 12.010000
23412 ca 16850 TPS CA1 23412 -0.361 12.010000
23413 si 16850 TPS Si 23413 1.1 28.085000
23414 ca 16850 TPS CA6 23414 -0.0753 12.010000
23415 ha 16850 TPS HH6 23415 0.1332 1.008000
23416 ca 16850 TPS CA5 23416 -0.1548 12.010000
23417 ha 16850 TPS HA5 23417 0.1282 1.008000
23418 ca 16850 TPS CA4 23418 -0.1028 12.010000
23419 ha 16850 TPS HA4 23419 0.1262 1.008000
23420 ca 16850 TPS CA3 23420 -0.1548 12.010000
23421 ha 16850 TPS HA3 23421 0.1282 1.008000
23422 ha 16851 TPS HA2 23422 0.1332 1.008000
23423 ca 16851 TPS CA2 23423 -0.0753 12.010000
23424 ca 16851 TPS CA1 23424 -0.361 12.010000
23425 si 16851 TPS Si 23425 1.1 28.085000
23426 ca 16851 TPS CA6 23426 -0.0753 12.010000
23427 ha 16851 TPS HH6 23427 0.1332 1.008000
23428 ca 16851 TPS CA5 23428 -0.1548 12.010000
23429 ha 16851 TPS HA5 23429 0.1282 1.008000
23430 ca 16851 TPS CA4 23430 -0.1028 12.010000
23431 ha 16851 TPS HA4 23431 0.1262 1.008000
23432 ca 16851 TPS CA3 23432 -0.1548 12.010000
23433 ha 16851 TPS HA3 23433 0.1282 1.008000
23434 ha 16852 TPS HA2 23434 0.1332 1.008000
23435 ca 16852 TPS CA2 23435 -0.0753 12.010000
23436 ca 16852 TPS CA1 23436 -0.361 12.010000
23437 si 16852 TPS Si 23437 1.1 28.085000
23438 ca 16852 TPS CA6 23438 -0.0753 12.010000
23439 ha 16852 TPS HH6 23439 0.1332 1.008000
23440 ca 16852 TPS CA5 23440 -0.1548 12.010000
23441 ha 16852 TPS HA5 23441 0.1282 1.008000
23442 ca 16852 TPS CA4 23442 -0.1028 12.010000
23443 ha 16852 TPS HA4 23443 0.1262 1.008000
23444 ca 16852 TPS CA3 23444 -0.1548 12.010000
23445 ha 16852 TPS HA3 23445 0.1282 1.008000
23446 ha 16853 TPS HA2 23446 0.1332 1.008000
23447 ca 16853 TPS CA2 23447 -0.0753 12.010000
23448 ca 16853 TPS CA1 23448 -0.361 12.010000
23449 si 16853 TPS Si 23449 1.1 28.085000
23450 ca 16853 TPS CA6 23450 -0.0753 12.010000
23451 ha 16853 TPS HH6 23451 0.1332 1.008000
23452 ca 16853 TPS CA5 23452 -0.1548 12.010000
23453 ha 16853 TPS HA5 23453 0.1282 1.008000
23454 ca 16853 TPS CA4 23454 -0.1028 12.010000
23455 ha 16853 TPS HA4 23455 0.1262 1.008000
23456 ca 16853 TPS CA3 23456 -0.1548 12.010000
23457 ha 16853 TPS HA3 23457 0.1282 1.008000
23458 ha 16854 TPS HA2 23458 0.1332 1.008000
23459 ca 16854 TPS CA2 23459 -0.0753 12.010000
23460 ca 16854 TPS CA1 23460 -0.361 12.010000
23461 si 16854 TPS Si 23461 1.1 28.085000
23462 ca 16854 TPS CA6 23462 -0.0753 12.010000
23463 ha 16854 TPS HH6 23463 0.1332 1.008000
23464 ca 16854 TPS CA5 23464 -0.1548 12.010000
23465 ha 16854 TPS HA5 23465 0.1282 1.008000
23466 ca 16854 TPS CA4 23466 -0.1028 12.010000
23467 ha 16854 TPS HA4 23467 0.1262 1.008000
23468 ca 16854 TPS CA3 23468 -0.1548 12.010000
23469 ha 16854 TPS HA3 23469 0.1282 1.008000
23470 ha 16855 TPS HA2 23470 0.1332 1.008000
23471 ca 16855 TPS CA2 23471 -0.0753 12.010000
23472 ca 16855 TPS CA1 23472 -0.361 12.010000
23473 si 16855 TPS Si 23473 1.1 28.085000
23474 ca 16855 TPS CA6 23474 -0.0753 12.010000
23475 ha 16855 TPS HH6 23475 0.1332 1.008000
23476 ca 16855 TPS CA5 23476 -0.1548 12.010000
23477 ha 16855 TPS HA5 23477 0.1282 1.008000
23478 ca 16855 TPS CA4 23478 -0.1028 12.010000
23479 ha 16855 TPS HA4 23479 0.1262 1.008000
23480 ca 16855 TPS CA3 23480 -0.1548 12.010000
23481 ha 16855 TPS HA3 23481 0.1282 1.008000
23482 ha 16856 TPS HA2 23482 0.1332 1.008000
23483 ca 16856 TPS CA2 23483 -0.0753 12.010000
23484 ca 16856 TPS CA1 23484 -0.361 12.010000
23485 si 16856 TPS Si 23485 1.1 28.085000
23486 ca 16856 TPS CA6 23486 -0.0753 12.010000
23487 ha 16856 TPS HH6 23487 0.1332 1.008000
23488 ca 16856 TPS CA5 23488 -0.1548 12.010000
23489 ha 16856 TPS HA5 23489 0.1282 1.008000
23490 ca 16856 TPS CA4 23490 -0.1028 12.010000
23491 ha 16856 TPS HA4 23491 0.1262 1.008000
23492 ca 16856 TPS CA3 23492 -0.1548 12.010000
23493 ha 16856 TPS HA3 23493 0.1282 1.008000
23494 ha 16857 TPS HA2 23494 0.1332 1.008000
23495 ca 16857 TPS CA2 23495 -0.0753 12.010000
23496 ca 16857 TPS CA1 23496 -0.361 12.010000
23497 si 16857 TPS Si 23497 1.1 28.085000
23498 ca 16857 TPS CA6 23498 -0.0753 12.010000
23499 ha 16857 TPS HH6 23499 0.1332 1.008000
23500 ca 16857 TPS CA5 23500 -0.1548 12.010000
23501 ha 16857 TPS HA5 23501 0.1282 1.008000
23502 ca 16857 TPS CA4 23502 -0.1028 12.010000
23503 ha 16857 TPS HA4 23503 0.1262 1.008000
23504 ca 16857 TPS CA3 23504 -0.1548 12.010000
23505 ha 16857 TPS HA3 23505 0.1282 1.008000
23506 ha 16858 TPS HA2 23506 0.1332 1.008000
23507 ca 16858 TPS CA2 23507 -0.0753 12.010000
23508 ca 16858 TPS CA1 23508 -0.361 12.010000
23509 si 16858 TPS Si 23509 1.1 28.085000
23510 ca 16858 TPS CA6 23510 -0.0753 12.010000
23511 ha 16858 TPS HH6 23511 0.1332 1.008000
23512 ca 16858 TPS CA5 23512 -0.1548 12.010000
23513 ha 16858 TPS HA5 23513 0.1282 1.008000
23514 ca 16858 TPS CA4 23514 -0.1028 12.010000
23515 ha 16858 TPS HA4 23515 0.1262 1.008000
23516 ca 16858 TPS CA3 23516 -0.1548 12.010000
23517 ha 16858 TPS HA3 23517 0.1282 1.008000
23518 ha 16859 TPS HA2 23518 0.1332 1.008000
23519 ca 16859 TPS CA2 23519 -0.0753 12.010000
23520 ca 16859 TPS CA1 23520 -0.361 12.010000
23521 si 16859 TPS Si 23521 1.1 28.085000
23522 ca 16859 TPS CA6 23522 -0.0753 12.010000
23523 ha 16859 TPS HH6 23523 0.1332 1.008000
23524 ca 16859 TPS CA5 23524 -0.1548 12.010000
23525 ha 16859 TPS HA5 23525 0.1282 1.008000
23526 ca 16859 TPS CA4 23526 -0.1028 12.010000
23527 ha 16859 TPS HA4 23527 0.1262 1.008000
23528 ca 16859 TPS CA3 23528 -0.1548 12.010000
23529 ha 16859 TPS HA3 23529 0.1282 1.008000
23530 ha 16860 TPS HA2 23530 0.1332 1.008000
23531 ca 16860 TPS CA2 23531 -0.0753 12.010000
23532 ca 16860 TPS CA1 23532 -0.361 12.010000
23533 si 16860 TPS Si 23533 1.1 28.085000
23534 ca 16860 TPS CA6 23534 -0.0753 12.010000
23535 ha 16860 TPS HH6 23535 0.1332 1.008000
23536 ca 16860 TPS CA5 23536 -0.1548 12.010000
23537 ha 16860 TPS HA5 23537 0.1282 1.008000
23538 ca 16860 TPS CA4 23538 -0.1028 12.010000
23539 ha 16860 TPS HA4 23539 0.1262 1.008000
23540 ca 16860 TPS CA3 23540 -0.1548 12.010000
23541 ha 16860 TPS HA3 23541 0.1282 1.008000
23542 ha 16861 TPS HA2 23542 0.1332 1.008000
23543 ca 16861 TPS CA2 23543 -0.0753 12.010000
23544 ca 16861 TPS CA1 23544 -0.361 12.010000
23545 si 16861 TPS Si 23545 1.1 28.085000
23546 ca 16861 TPS CA6 23546 -0.0753 12.010000
23547 ha 16861 TPS HH6 23547 0.1332 1.008000
23548 ca 16861 TPS CA5 23548 -0.1548 12.010000
23549 ha 16861 TPS HA5 23549 0.1282 1.008000
23550 ca 16861 TPS CA4 23550 -0.1028 12.010000
23551 ha 16861 TPS HA4 23551 0.1262 1.008000
23552 ca 16861 TPS CA3 23552 -0.1548 12.010000
23553 ha 16861 TPS HA3 23553 0.1282 1.008000
23554 ha 16862 TPS HA2 23554 0.1332 1.008000
23555 ca 16862 TPS CA2 23555 -0.0753 12.010000
23556 ca 16862 TPS CA1 23556 -0.361 12.010000
23557 si 16862 TPS Si 23557 1.1 28.085000
23558 ca 16862 TPS CA6 23558 -0.0753 12.010000
23559 ha 16862 TPS HH6 23559 0.1332 1.008000
23560 ca 16862 TPS CA5 23560 -0.1548 12.010000
23561 ha 16862 TPS HA5 23561 0.1282 1.008000
23562 ca 16862 TPS CA4 23562 -0.1028 12.010000
23563 ha 16862 TPS HA4 23563 0.1262 1.008000
23564 ca 16862 TPS CA3 23564 -0.1548 12.010000
23565 ha 16862 TPS HA3 23565 0.1282 1.008000
23566 ha 16863 TPS HA2 23566 0.1332 1.008000
23567 ca 16863 TPS CA2 23567 -0.0753 12.010000
23568 ca 16863 TPS CA1 23568 -0.361 12.010000
23569 si 16863 TPS Si 23569 1.1 28.085000
23570 ca 16863 TPS CA6 23570 -0.0753 12.010000
23571 ha 16863 TPS HH6 23571 0.1332 1.008000
23572 ca 16863 TPS CA5 23572 -0.1548 12.010000
23573 ha 16863 TPS HA5 23573 0.1282 1.008000
23574 ca 16863 TPS CA4 23574 -0.1028 12.010000
23575 ha 16863 TPS HA4 23575 0.1262 1.008000
23576 ca 16863 TPS CA3 23576 -0.1548 12.010000
23577 ha 16863 TPS HA3 23577 0.1282 1.008000
23578 ha 16864 TPS HA2 23578 0.1332 1.008000
23579 ca 16864 TPS CA2 23579 -0.0753 12.010000
23580 ca 16864 TPS CA1 23580 -0.361 12.010000
23581 si 16864 TPS Si 23581 1.1 28.085000
23582 ca 16864 TPS CA6 23582 -0.0753 12.010000
23583 ha 16864 TPS HH6 23583 0.1332 1.008000
23584 ca 16864 TPS CA5 23584 -0.1548 12.010000
23585 ha 16864 TPS HA5 23585 0.1282 1.008000
23586 ca 16864 TPS CA4 23586 -0.1028 12.010000
23587 ha 16864 TPS HA4 23587 0.1262 1.008000
23588 ca 16864 TPS CA3 23588 -0.1548 12.010000
23589 ha 16864 TPS HA3 23589 0.1282 1.008000
23590 ha 16865 TPS HA2 23590 0.1332 1.008000
23591 ca 16865 TPS CA2 23591 -0.0753 12.010000
23592 ca 16865 TPS CA1 23592 -0.361 12.010000
23593 si 16865 TPS Si 23593 1.1 28.085000
23594 ca 16865 TPS CA6 23594 -0.0753 12.010000
23595 ha 16865 TPS HH6 23595 0.1332 1.008000
23596 ca 16865 TPS CA5 23596 -0.1548 12.010000
23597 ha 16865 TPS HA5 23597 0.1282 1.008000
23598 ca 16865 TPS CA4 23598 -0.1028 12.010000
23599 ha 16865 TPS HA4 23599 0.1262 1.008000
23600 ca 16865 TPS CA3 23600 -0.1548 12.010000
23601 ha 16865 TPS HA3 23601 0.1282 1.008000
23602 SI 16866 SL Si1 23602 1.100000 28.08600
23603 OA 16866 SL O1 23603 -0.675000 15.99940
23604 HG 16866 SL H1 23604 0.400000 2.01600
23605 SI 16867 SL Si1 23605 1.100000 28.08600
23606 OA 16867 SL O1 23606 -0.675000 15.99940
23607 HG 16867 SL H1 23607 0.400000 2.01600
23608 SI 16868 SL Si1 23608 1.100000 28.08600
23609 OA 16868 SL O1 23609 -0.675000 15.99940
23610 HG 16868 SL H1 23610 0.400000 2.01600
23611 SI 16869 SL Si1 23611 1.100000 28.08600
23612 OA 16869 SL O1 23612 -0.675000 15.99940
23613 HG 16869 SL H1 23613 0.400000 2.01600
23614 SI 16870 SL Si1 23614 1.100000 28.08600
23615 OA 16870 SL O1 23615 -0.675000 15.99940
23616 HG 16870 SL H1 23616 0.400000 2.01600
23617 SI 16871 SL Si1 23617 1.100000 28.08600
23618 OA 16871 SL O1 23618 -0.675000 15.99940
23619 HG 16871 SL H1 23619 0.400000 2.01600
23620 SI 16872 SL Si1 23620 1.100000 28.08600
23621 OA 16872 SL O1 23621 -0.675000 15.99940
23622 HG 16872 SL H1 23622 0.400000 2.01600
23623 SI 16873 SL Si1 23623 1.100000 28.08600
23624 OA 16873 SL O1 23624 -0.675000 15.99940
23625 HG 16873 SL H1 23625 0.400000 2.01600
23626 SI 16874 SL Si1 23626 1.100000 28.08600
23627 OA 16874 SL O1 23627 -0.675000 15.99940
23628 HG 16874 SL H1 23628 0.400000 2.01600
23629 SI 16875 SL Si1 23629 1.100000 28.08600
23630 OA 16875 SL O1 23630 -0.675000 15.99940
23631 HG 16875 SL H1 23631 0.400000 2.01600
23632 SI 16876 SL Si1 23632 1.100000 28.08600
23633 OA 16876 SL O1 23633 -0.675000 15.99940
23634 HG 16876 SL H1 23634 0.400000 2.01600
23635 SI 16877 SL Si1 23635 1.100000 28.08600
23636 OA 16877 SL O1 23636 -0.675000 15.99940
23637 HG 16877 SL H1 23637 0.400000 2.01600
23638 SI 16878 SL Si1 23638 1.100000 28.08600
23639 OA 16878 SL O1 23639 -0.675000 15.99940
23640 HG 16878 SL H1 23640 0.400000 2.01600
23641 SI 16879 SL Si1 23641 1.100000 28.08600
23642 OA 16879 SL O1 23642 -0.675000 15.99940
23643 HG 16879 SL H1 23643 0.400000 2.01600
23644 SI 16880 SL Si1 23644 1.100000 28.08600
23645 OA 16880 SL O1 23645 -0.675000 15.99940
23646 HG 16880 SL H1 23646 0.400000 2.01600
23647 SI 16881 SL Si1 23647 1.100000 28.08600
23648 OA 16881 SL O1 23648 -0.675000 15.99940
23649 HG 16881 SL H1 23649 0.400000 2.01600
23650 SI 16882 SL Si1 23650 1.100000 28.08600
23651 OA 16882 SL O1 23651 -0.675000 15.99940
23652 HG 16882 SL H1 23652 0.400000 2.01600
23653 SI 16883 SL Si1 23653 1.100000 28.08600
23654 OA 16883 SL O1 23654 -0.675000 15.99940
23655 HG 16883 SL H1 23655 0.400000 2.01600
23656 SI 16884 SL Si1 23656 1.100000 28.08600
23657 OA 16884 SL O1 23657 -0.675000 15.99940
23658 HG 16884 SL H1 23658 0.400000 2.01600
23659 SI 16885 SL Si1 23659 1.100000 28.08600
23660 OA 16885 SL O1 23660 -0.675000 15.99940
23661 HG 16885 SL H1 23661 0.400000 2.01600
23662 SI 16886 SL Si1 23662 1.100000 28.08600
23663 OA 16886 SL O1 23663 -0.675000 15.99940
23664 HG 16886 SL H1 23664 0.400000 2.01600
23665 SI 16887 SL Si1 23665 1.100000 28.08600
23666 OA 16887 SL O1 23666 -0.675000 15.99940
23667 HG 16887 SL H1 23667 0.400000 2.01600
23668 SI 16888 SL Si1 23668 1.100000 28.08600
23669 OA 16888 SL O1 23669 -0.675000 15.99940
23670 HG 16888 SL H1 23670 0.400000 2.01600
23671 SI 16889 SL Si1 23671 1.100000 28.08600
23672 OA 16889 SL O1 23672 -0.675000 15.99940
23673 HG 16889 SL H1 23673 0.400000 2.01600
23674 SI 16890 SL Si1 23674 1.100000 28.08600
23675 OA 16890 SL O1 23675 -0.675000 15.99940
23676 HG 16890 SL H1 23676 0.400000 2.01600
23677 SI 16891 SL Si1 23677 1.100000 28.08600
23678 OA 16891 SL O1 23678 -0.675000 15.99940
23679 HG 16891 SL H1 23679 0.400000 2.01600
23680 SI 16892 SL Si1 23680 1.100000 28.08600
23681 OA 16892 SL O1 23681 -0.675000 15.99940
23682 HG 16892 SL H1 23682 0.400000 2.01600
23683 SI 16893 SL Si1 23683 1.100000 28.08600
23684 OA 16893 SL O1 23684 -0.675000 15.99940
23685 HG 16893 SL H1 23685 0.400000 2.01600
23686 SI 16894 SL Si1 23686 1.100000 28.08600
23687 OA 16894 SL O1 23687 -0.675000 15.99940
23688 HG 16894 SL H1 23688 0.400000 2.01600
23689 SI 16895 SL Si1 23689 1.100000 28.08600
23690 OA 16895 SL O1 23690 -0.675000 15.99940
23691 HG 16895 SL H1 23691 0.400000 2.01600
23692 SI 16896 SL Si1 23692 1.100000 28.08600
23693 OA 16896 SL O1 23693 -0.675000 15.99940
23694 HG 16896 SL H1 23694 0.400000 2.01600
23695 SI 16897 SL Si1 23695 1.100000 28.08600
23696 OA 16897 SL O1 23696 -0.675000 15.99940
23697 HG 16897 SL H1 23697 0.400000 2.01600
23698 SI 16898 SL Si1 23698 1.100000 28.08600
23699 OA 16898 SL O1 23699 -0.675000 15.99940
23700 HG 16898 SL H1 23700 0.400000 2.01600
23701 SI 16899 SL Si1 23701 1.100000 28.08600
23702 OA 16899 SL O1 23702 -0.675000 15.99940
23703 HG 16899 SL H1 23703 0.400000 2.01600
23704 SI 16900 SL Si1 23704 1.100000 28.08600
23705 OA 16900 SL O1 23705 -0.675000 15.99940
23706 HG 16900 SL H1 23706 0.400000 2.01600
23707 SI 16901 SL Si1 23707 1.100000 28.08600
23708 OA 16901 SL O1 23708 -0.675000 15.99940
23709 HG 16901 SL H1 23709 0.400000 2.01600
23710 SI 16902 SL Si1 23710 1.100000 28.08600
23711 OA 16902 SL O1 23711 -0.675000 15.99940
23712 HG 16902 SL H1 23712 0.400000 2.01600
23713 SI 16903 SL Si1 23713 1.100000 28.08600
23714 OA 16903 SL O1 23714 -0.675000 15.99940
23715 HG 16903 SL H1 23715 0.400000 2.01600
23716 SI 16904 SL Si1 23716 1.100000 28.08600
23717 OA 16904 SL O1 23717 -0.675000 15.99940
23718 HG 16904 SL H1 23718 0.400000 2.01600
23719 SI 16905 SL Si1 23719 1.100000 28.08600
23720 OA 16905 SL O1 23720 -0.675000 15.99940
23721 HG 16905 SL H1 23721 0.400000 2.01600
23722 SI 16906 SL Si1 23722 1.100000 28.08600
23723 OA 16906 SL O1 23723 -0.675000 15.99940
23724 HG 16906 SL H1 23724 0.400000 2.01600
23725 SI 16907 SL Si1 23725 1.100000 28.08600
23726 OA 16907 SL O1 23726 -0.675000 15.99940
23727 HG 16907 SL H1 23727 0.400000 2.01600
23728 SI 16908 SL Si1 23728 1.100000 28.08600
23729 OA 16908 SL O1 23729 -0.675000 15.99940
23730 HG 16908 SL H1 23730 0.400000 2.01600
23731 SI 16909 SL Si1 23731 1.100000 28.08600
23732 OA 16909 SL O1 23732 -0.675000 15.99940
23733 HG 16909 SL H1 23733 0.400000 2.01600
23734 SI 16910 SL Si1 23734 1.100000 28.08600
23735 OA 16910 SL O1 23735 -0.675000 15.99940
23736 HG 16910 SL H1 23736 0.400000 2.01600
23737 SI 16911 SL Si1 23737 1.100000 28.08600
23738 OA 16911 SL O1 23738 -0.675000 15.99940
23739 HG 16911 SL H1 23739 0.400000 2.01600
23740 SI 16912 SL Si1 23740 1.100000 28.08600
23741 OA 16912 SL O1 23741 -0.675000 15.99940
23742 HG 16912 SL H1 23742 0.400000 2.01600
23743 SI 16913 SL Si1 23743 1.100000 28.08600
23744 OA 16913 SL O1 23744 -0.675000 15.99940
23745 HG 16913 SL H1 23745 0.400000 2.01600
23746 SI 16914 SL Si1 23746 1.100000 28.08600
23747 OA 16914 SL O1 23747 -0.675000 15.99940
23748 HG 16914 SL H1 23748 0.400000 2.01600
23749 SI 16915 SL Si1 23749 1.100000 28.08600
23750 OA 16915 SL O1 23750 -0.675000 15.99940
23751 HG 16915 SL H1 23751 0.400000 2.01600
23752 SI 16916 SL Si1 23752 1.100000 28.08600
23753 OA 16916 SL O1 23753 -0.675000 15.99940
23754 HG 16916 SL H1 23754 0.400000 2.01600
23755 SI 16917 SL Si1 23755 1.100000 28.08600
23756 OA 16917 SL O1 23756 -0.675000 15.99940
23757 HG 16917 SL H1 23757 0.400000 2.01600
23758 SI 16918 SL Si1 23758 1.100000 28.08600
23759 OA 16918 SL O1 23759 -0.675000 15.99940
23760 HG 16918 SL H1 23760 0.400000 2.01600
23761 SI 16919 SL Si1 23761 1.100000 28.08600
23762 OA 16919 SL O1 23762 -0.675000 15.99940
23763 HG 16919 SL H1 23763 0.400000 2.01600
23764 SI 16920 SL Si1 23764 1.100000 28.08600
23765 OA 16920 SL O1 23765 -0.675000 15.99940
23766 HG 16920 SL H1 23766 0.400000 2.01600
23767 SI 16921 SL Si1 23767 1.100000 28.08600
23768 OA 16921 SL O1 23768 -0.675000 15.99940
23769 HG 16921 SL H1 23769 0.400000 2.01600
23770 SI 16922 SL Si1 23770 1.100000 28.08600
23771 OA 16922 SL O1 23771 -0.675000 15.99940
23772 HG 16922 SL H1 23772 0.400000 2.01600
23773 SI 16923 SL Si1 23773 1.100000 28.08600
23774 OA 16923 SL O1 23774 -0.675000 15.99940
23775 HG 16923 SL H1 23775 0.400000 2.01600
23776 SI 16924 SL Si1 23776 1.100000 28.08600
23777 OA 16924 SL O1 23777 -0.675000 15.99940
23778 HG 16924 SL H1 23778 0.400000 2.01600
23779 SI 16925 SL Si1 23779 1.100000 28.08600
23780 OA 16925 SL O1 23780 -0.675000 15.99940
23781 HG 16925 SL H1 23781 0.400000 2.01600
23782 SI 16926 SL Si1 23782 1.100000 28.08600
23783 OA 16926 SL O1 23783 -0.675000 15.99940
23784 HG 16926 SL H1 23784 0.400000 2.01600
23785 SI 16927 SL Si1 23785 1.100000 28.08600
23786 OA 16927 SL O1 23786 -0.675000 15.99940
23787 HG 16927 SL H1 23787 0.400000 2.01600
23788 SI 16928 SL Si1 23788 1.100000 28.08600
23789 OA 16928 SL O1 23789 -0.675000 15.99940
23790 HG 16928 SL H1 23790 0.400000 2.01600
23791 SI 16929 SL Si1 23791 1.100000 28.08600
23792 OA 16929 SL O1 23792 -0.675000 15.99940
23793 HG 16929 SL H1 23793 0.400000 2.01600
23794 SI 16930 SL Si1 23794 1.100000 28.08600
23795 OA 16930 SL O1 23795 -0.675000 15.99940
23796 HG 16930 SL H1 23796 0.400000 2.01600
23797 SI 16931 SL Si1 23797 1.100000 28.08600
23798 OA 16931 SL O1 23798 -0.675000 15.99940
23799 HG 16931 SL H1 23799 0.400000 2.01600
23800 SI 16932 SL Si1 23800 1.100000 28.08600
23801 OA 16932 SL O1 23801 -0.675000 15.99940
23802 HG 16932 SL H1 23802 0.400000 2.01600
23803 SI 16933 SL Si1 23803 1.100000 28.08600
23804 OA 16933 SL O1 23804 -0.675000 15.99940
23805 HG 16933 SL H1 23805 0.400000 2.01600
23806 SI 16934 SL Si1 23806 1.100000 28.08600
23807 OA 16934 SL O1 23807 -0.675000 15.99940
23808 HG 16934 SL H1 23808 0.400000 2.01600
23809 SI 16935 SL Si1 23809 1.100000 28.08600
23810 OA 16935 SL O1 23810 -0.675000 15.99940
23811 HG 16935 SL H1 23811 0.400000 2.01600
23812 SI 16936 SL Si1 23812 1.100000 28.08600
23813 OA 16936 SL O1 23813 -0.675000 15.99940
23814 HG 16936 SL H1 23814 0.400000 2.01600
23815 SI 16937 SL Si1 23815 1.100000 28.08600
23816 OA 16937 SL O1 23816 -0.675000 15.99940
23817 HG 16937 SL H1 23817 0.400000 2.01600
23818 SI 16938 SL Si1 23818 1.100000 28.08600
23819 OA 16938 SL O1 23819 -0.675000 15.99940
23820 HG 16938 SL H1 23820 0.400000 2.01600
23821 SI 16939 SL Si1 23821 1.100000 28.08600
23822 OA 16939 SL O1 23822 -0.675000 15.99940
23823 HG 16939 SL H1 23823 0.400000 2.01600
23824 SI 16940 SL Si1 23824 1.100000 28.08600
23825 OA 16940 SL O1 23825 -0.675000 15.99940
23826 HG 16940 SL H1 23826 0.400000 2.01600
23827 SI 16941 SL Si1 23827 1.100000 28.08600
23828 OA 16941 SL O1 23828 -0.675000 15.99940
23829 HG 16941 SL H1 23829 0.400000 2.01600
23830 SI 16942 SL Si1 23830 1.100000 28.08600
23831 OA 16942 SL O1 23831 -0.675000 15.99940
23832 HG 16942 SL H1 23832 0.400000 2.01600
23833 SI 16943 SL Si1 23833 1.100000 28.08600
23834 OA 16943 SL O1 23834 -0.675000 15.99940
23835 HG 16943 SL H1 23835 0.400000 2.01600
23836 SI 16944 SL Si1 23836 1.100000 28.08600
23837 OA 16944 SL O1 23837 -0.675000 15.99940
23838 HG 16944 SL H1 23838 0.400000 2.01600
23839 SI 16945 SL Si1 23839 1.100000 28.08600
23840 OA 16945 SL O1 23840 -0.675000 15.99940
23841 HG 16945 SL H1 23841 0.400000 2.01600
23842 SI 16946 SL Si1 23842 1.100000 28.08600
23843 OA 16946 SL O1 23843 -0.675000 15.99940
23844 HG 16946 SL H1 23844 0.400000 2.01600
23845 SI 16947 SL Si1 23845 1.100000 28.08600
23846 OA 16947 SL O1 23846 -0.675000 15.99940
23847 HG 16947 SL H1 23847 0.400000 2.01600
23848 SI 16948 SL Si1 23848 1.100000 28.08600
23849 OA 16948 SL O1 23849 -0.675000 15.99940
23850 HG 16948 SL H1 23850 0.400000 2.01600
23851 SI 16949 SL Si1 23851 1.100000 28.08600
23852 OA 16949 SL O1 23852 -0.675000 15.99940
23853 HG 16949 SL H1 23853 0.400000 2.01600
23854 SI 16950 SL Si1 23854 1.100000 28.08600
23855 OA 16950 SL O1 23855 -0.675000 15.99940
23856 HG 16950 SL H1 23856 0.400000 2.01600
23857 SI 16951 SL Si1 23857 1.100000 28.08600
23858 OA 16951 SL O1 23858 -0.675000 15.99940
23859 HG 16951 SL H1 23859 0.400000 2.01600
23860 SI 16952 SL Si1 23860 1.100000 28.08600
23861 OA 16952 SL O1 23861 -0.675000 15.99940
23862 HG 16952 SL H1 23862 0.400000 2.01600
23863 SI 16953 SL Si1 23863 1.100000 28.08600
23864 OA 16953 SL O1 23864 -0.675000 15.99940
23865 HG 16953 SL H1 23865 0.400000 2.01600
23866 SI 16954 SL Si1 23866 1.100000 28.08600
23867 OA 16954 SL O1 23867 -0.675000 15.99940
23868 HG 16954 SL H1 23868 0.400000 2.01600
23869 SI 16955 SL Si1 23869 1.100000 28.08600
23870 OA 16955 SL O1 23870 -0.675000 15.99940
23871 HG 16955 SL H1 23871 0.400000 2.01600
23872 SI 16956 SL Si1 23872 1.100000 28.08600
23873 OA 16956 SL O1 23873 -0.675000 15.99940
23874 HG 16956 SL H1 23874 0.400000 2.01600
23875 SI 16957 SL Si1 23875 1.100000 28.08600
23876 OA 16957 SL O1 23876 -0.675000 15.99940
23877 HG 16957 SL H1 23877 0.400000 2.01600
23878 SI 16958 SL Si1 23878 1.100000 28.08600
23879 OA 16958 SL O1 23879 -0.675000 15.99940
23880 HG 16958 SL H1 23880 0.400000 2.01600
23881 SI 16959 SL Si1 23881 1.100000 28.08600
23882 OA 16959 SL O1 23882 -0.675000 15.99940
23883 HG 16959 SL H1 23883 0.400000 2.01600
23884 SI 16960 SL Si1 23884 1.100000 28.08600
23885 OA 16960 SL O1 23885 -0.675000 15.99940
23886 HG 16960 SL H1 23886 0.400000 2.01600
23887 SI 16961 SL Si1 23887 1.100000 28.08600
23888 OA 16961 SL O1 23888 -0.675000 15.99940
23889 HG 16961 SL H1 23889 0.400000 2.01600
23890 SI 16962 SL Si1 23890 1.100000 28.08600
23891 OA 16962 SL O1 23891 -0.675000 15.99940
23892 HG 16962 SL H1 23892 0.400000 2.01600
23893 SI 16963 SL Si1 23893 1.100000 28.08600
23894 OA 16963 SL O1 23894 -0.675000 15.99940
23895 HG 16963 SL H1 23895 0.400000 2.01600
23896 SI 16964 SL Si1 23896 1.100000 28.08600
23897 OA 16964 SL O1 23897 -0.675000 15.99940
23898 HG 16964 SL H1 23898 0.400000 2.01600
23899 SI 16965 SL Si1 23899 1.100000 28.08600
23900 OA 16965 SL O1 23900 -0.675000 15.99940
23901 HG 16965 SL H1 23901 0.400000 2.01600
23902 SI 16966 SL Si1 23902 1.100000 28.08600
23903 OA 16966 SL O1 23903 -0.675000 15.99940
23904 HG 16966 SL H1 23904 0.400000 2.01600
23905 SI 16967 SL Si1 23905 1.100000 28.08600
23906 OA 16967 SL O1 23906 -0.675000 15.99940
23907 HG 16967 SL H1 23907 0.400000 2.01600
23908 SI 16968 SL Si1 23908 1.100000 28.08600
23909 OA 16968 SL O1 23909 -0.675000 15.99940
23910 HG 16968 SL H1 23910 0.400000 2.01600
23911 SI 16969 SL Si1 23911 1.100000 28.08600
23912 OA 16969 SL O1 23912 -0.675000 15.99940
23913 HG 16969 SL H1 23913 0.400000 2.01600
23914 SI 16970 SL Si1 23914 1.100000 28.08600
23915 OA 16970 SL O1 23915 -0.675000 15.99940
23916 HG 16970 SL H1 23916 0.400000 2.01600
23917 SI 16971 SL Si1 23917 1.100000 28.08600
23918 OA 16971 SL O1 23918 -0.675000 15.99940
23919 HG 16971 SL H1 23919 0.400000 2.01600
23920 SI 16972 SL Si1 23920 1.100000 28.08600
23921 OA 16972 SL O1 23921 -0.675000 15.99940
23922 HG 16972 SL H1 23922 0.400000 2.01600
23923 SI 16973 SL Si1 23923 1.100000 28.08600
23924 OA 16973 SL O1 23924 -0.675000 15.99940
23925 HG 16973 SL H1 23925 0.400000 2.01600
23926 SI 16974 SL Si1 23926 1.100000 28.08600
23927 OA 16974 SL O1 23927 -0.675000 15.99940
23928 HG 16974 SL H1 23928 0.400000 2.01600
23929 SI 16975 SL Si1 23929 1.100000 28.08600
23930 OA 16975 SL O1 23930 -0.675000 15.99940
23931 HG 16975 SL H1 23931 0.400000 2.01600
23932 SI 16976 SL Si1 23932 1.100000 28.08600
23933 OA 16976 SL O1 23933 -0.675000 15.99940
23934 HG 16976 SL H1 23934 0.400000 2.01600
23935 SI 16977 SL Si1 23935 1.100000 28.08600
23936 OA 16977 SL O1 23936 -0.675000 15.99940
23937 HG 16977 SL H1 23937 0.400000 2.01600
23938 SI 16978 SL Si1 23938 1.100000 28.08600
23939 OA 16978 SL O1 23939 -0.675000 15.99940
23940 HG 16978 SL H1 23940 0.400000 2.01600
23941 SI 16979 SL Si1 23941 1.100000 28.08600
23942 OA 16979 SL O1 23942 -0.675000 15.99940
23943 HG 16979 SL H1 23943 0.400000 2.01600
23944 SI 16980 SL Si1 23944 1.100000 28.08600
23945 OA 16980 SL O1 23945 -0.675000 15.99940
23946 HG 16980 SL H1 23946 0.400000 2.01600
23947 SI 16981 SL Si1 23947 1.100000 28.08600
23948 OA 16981 SL O1 23948 -0.675000 15.99940
23949 HG 16981 SL H1 23949 0.400000 2.01600
23950 SI 16982 SL Si1 23950 1.100000 28.08600
23951 OA 16982 SL O1 23951 -0.675000 15.99940
23952 HG 16982 SL H1 23952 0.400000 2.01600
23953 SI 16983 SL Si1 23953 1.100000 28.08600
23954 OA 16983 SL O1 23954 -0.675000 15.99940
23955 HG 16983 SL H1 23955 0.400000 2.01600
23956 SI 16984 SL Si1 23956 1.100000 28.08600
23957 OA 16984 SL O1 23957 -0.675000 15.99940
23958 HG 16984 SL H1 23958 0.400000 2.01600
23959 SI 16985 SL Si1 23959 1.100000 28.08600
23960 OA 16985 SL O1 23960 -0.675000 15.99940
23961 HG 16985 SL H1 23961 0.400000 2.01600
23962 SI 16986 SL Si1 23962 1.100000 28.08600
23963 OA 16986 SL O1 23963 -0.675000 15.99940
23964 HG 16986 SL H1 23964 0.400000 2.01600
23965 SI 16987 SL Si1 23965 1.100000 28.08600
23966 OA 16987 SL O1 23966 -0.675000 15.99940
23967 HG 16987 SL H1 23967 0.400000 2.01600
23968 SI 16988 SL Si1 23968 1.100000 28.08600
23969 OA 16988 SL O1 23969 -0.675000 15.99940
23970 HG 16988 SL H1 23970 0.400000 2.01600
23971 SI 16989 SL Si1 23971 1.100000 28.08600
23972 OA 16989 SL O1 23972 -0.675000 15.99940
23973 HG 16989 SL H1 23973 0.400000 2.01600
23974 SI 16990 SL Si1 23974 1.100000 28.08600
23975 OA 16990 SL O1 23975 -0.675000 15.99940
23976 HG 16990 SL H1 23976 0.400000 2.01600
23977 SI 16991 SL Si1 23977 1.100000 28.08600
23978 OA 16991 SL O1 23978 -0.675000 15.99940
23979 HG 16991 SL H1 23979 0.400000 2.01600
23980 SI 16992 SL Si1 23980 1.100000 28.08600
23981 OA 16992 SL O1 23981 -0.675000 15.99940
23982 HG 16992 SL H1 23982 0.400000 2.01600
23983 SI 16993 SL Si1 23983 1.100000 28.08600
23984 OA 16993 SL O1 23984 -0.675000 15.99940
23985 HG 16993 SL H1 23985 0.400000 2.01600
23986 SI 16994 SL Si1 23986 1.100000 28.08600
23987 OA 16994 SL O1 23987 -0.675000 15.99940
23988 HG 16994 SL H1 23988 0.400000 2.01600
23989 SI 16995 SL Si1 23989 1.100000 28.08600
23990 OA 16995 SL O1 23990 -0.675000 15.99940
23991 HG 16995 SL H1 23991 0.400000 2.01600
23992 SI 16996 SL Si1 23992 1.100000 28.08600
23993 OA 16996 SL O1 23993 -0.675000 15.99940
23994 HG 16996 SL H1 23994 0.400000 2.01600
23995 SI 16997 SL Si1 23995 1.100000 28.08600
23996 OA 16997 SL O1 23996 -0.675000 15.99940
23997 HG 16997 SL H1 23997 0.400000 2.01600
23998 SI 16998 SL Si1 23998 1.100000 28.08600
23999 OA 16998 SL O1 23999 -0.675000 15.99940
24000 HG 16998 SL H1 24000 0.400000 2.01600
24001 SI 16999 SL Si1 24001 1.100000 28.08600
24002 OA 16999 SL O1 24002 -0.675000 15.99940
24003 HG 16999 SL H1 24003 0.400000 2.01600
24004 SI 17000 SL Si1 24004 1.100000 28.08600
24005 OA 17000 SL O1 24005 -0.675000 15.99940
24006 HG 17000 SL H1 24006 0.400000 2.01600
24007 SI 17001 SL Si1 24007 1.100000 28.08600
24008 OA 17001 SL O1 24008 -0.675000 15.99940
24009 HG 17001 SL H1 24009 0.400000 2.01600
24010 SI 17002 SL Si1 24010 1.100000 28.08600
24011 OA 17002 SL O1 24011 -0.675000 15.99940
24012 HG 17002 SL H1 24012 0.400000 2.01600
24013 SI 17003 SL Si1 24013 1.100000 28.08600
24014 OA 17003 SL O1 24014 -0.675000 15.99940
24015 HG 17003 SL H1 24015 0.400000 2.01600
24016 SI 17004 SL Si1 24016 1.100000 28.08600
24017 OA 17004 SL O1 24017 -0.675000 15.99940
24018 HG 17004 SL H1 24018 0.400000 2.01600
24019 SI 17005 SL Si1 24019 1.100000 28.08600
24020 OA 17005 SL O1 24020 -0.675000 15.99940
24021 HG 17005 SL H1 24021 0.400000 2.01600
24022 SI 17006 SL Si1 24022 1.100000 28.08600
24023 OA 17006 SL O1 24023 -0.675000 15.99940
24024 HG 17006 SL H1 24024 0.400000 2.01600
24025 SI 17007 SL Si1 24025 1.100000 28.08600
24026 OA 17007 SL O1 24026 -0.675000 15.99940
24027 HG 17007 SL H1 24027 0.400000 2.01600
24028 SI 17008 SL Si1 24028 1.100000 28.08600
24029 OA 17008 SL O1 24029 -0.675000 15.99940
24030 HG 17008 SL H1 24030 0.400000 2.01600
24031 SI 17009 SL Si1 24031 1.100000 28.08600
24032 OA 17009 SL O1 24032 -0.675000 15.99940
24033 HG 17009 SL H1 24033 0.400000 2.01600
24034 SI 17010 SL Si1 24034 1.100000 28.08600
24035 OA 17010 SL O1 24035 -0.675000 15.99940
24036 HG 17010 SL H1 24036 0.400000 2.01600
24037 SI 17011 SL Si1 24037 1.100000 28.08600
24038 OA 17011 SL O1 24038 -0.675000 15.99940
24039 HG 17011 SL H1 24039 0.400000 2.01600
24040 SI 17012 SL Si1 24040 1.100000 28.08600
24041 OA 17012 SL O1 24041 -0.675000 15.99940
24042 HG 17012 SL H1 24042 0.400000 2.01600
24043 SI 17013 SL Si1 24043 1.100000 28.08600
24044 OA 17013 SL O1 24044 -0.675000 15.99940
24045 HG 17013 SL H1 24045 0.400000 2.01600
24046 SI 17014 SL Si1 24046 1.100000 28.08600
24047 OA 17014 SL O1 24047 -0.675000 15.99940
24048 HG 17014 SL H1 24048 0.400000 2.01600
24049 SI 17015 SL Si1 24049 1.100000 28.08600
24050 OA 17015 SL O1 24050 -0.675000 15.99940
24051 HG 17015 SL H1 24051 0.400000 2.01600
24052 SI 17016 SL Si1 24052 1.100000 28.08600
24053 OA 17016 SL O1 24053 -0.675000 15.99940
24054 HG 17016 SL H1 24054 0.400000 2.01600
24055 SI 17017 SL Si1 24055 1.100000 28.08600
24056 OA 17017 SL O1 24056 -0.675000 15.99940
24057 HG 17017 SL H1 24057 0.400000 2.01600
24058 SI 17018 SL Si1 24058 1.100000 28.08600
24059 OA 17018 SL O1 24059 -0.675000 15.99940
24060 HG 17018 SL H1 24060 0.400000 2.01600
24061 SI 17019 SL Si1 24061 1.100000 28.08600
24062 OA 17019 SL O1 24062 -0.675000 15.99940
24063 HG 17019 SL H1 24063 0.400000 2.01600
24064 SI 17020 SL Si1 24064 1.100000 28.08600
24065 OA 17020 SL O1 24065 -0.675000 15.99940
24066 HG 17020 SL H1 24066 0.400000 2.01600
24067 SI 17021 SL Si1 24067 1.100000 28.08600
24068 OA 17021 SL O1 24068 -0.675000 15.99940
24069 HG 17021 SL H1 24069 0.400000 2.01600
24070 SI 17022 SL Si1 24070 1.100000 28.08600
24071 OA 17022 SL O1 24071 -0.675000 15.99940
24072 HG 17022 SL H1 24072 0.400000 2.01600
24073 SI 17023 SL Si1 24073 1.100000 28.08600
24074 OA 17023 SL O1 24074 -0.675000 15.99940
24075 HG 17023 SL H1 24075 0.400000 2.01600
24076 SI 17024 SL Si1 24076 1.100000 28.08600
24077 OA 17024 SL O1 24077 -0.675000 15.99940
24078 HG 17024 SL H1 24078 0.400000 2.01600
24079 SI 17025 SL Si1 24079 1.100000 28.08600
24080 OA 17025 SL O1 24080 -0.675000 15.99940
24081 HG 17025 SL H1 24081 0.400000 2.01600
24082 SI 17026 SL Si1 24082 1.100000 28.08600
24083 OA 17026 SL O1 24083 -0.675000 15.99940
24084 HG 17026 SL H1 24084 0.400000 2.01600
24085 SI 17027 SL Si1 24085 1.100000 28.08600
24086 OA 17027 SL O1 24086 -0.675000 15.99940
24087 HG 17027 SL H1 24087 0.400000 2.01600
24088 SI 17028 SL Si1 24088 1.100000 28.08600
24089 OA 17028 SL O1 24089 -0.675000 15.99940
24090 HG 17028 SL H1 24090 0.400000 2.01600
24091 SI 17029 SL Si1 24091 1.100000 28.08600
24092 OA 17029 SL O1 24092 -0.675000 15.99940
24093 HG 17029 SL H1 24093 0.400000 2.01600
24094 SI 17030 SL Si1 24094 1.100000 28.08600
24095 OA 17030 SL O1 24095 -0.675000 15.99940
24096 HG 17030 SL H1 24096 0.400000 2.01600
24097 SI 17031 SL Si1 24097 1.100000 28.08600
24098 OA 17031 SL O1 24098 -0.675000 15.99940
24099 HG 17031 SL H1 24099 0.400000 2.01600
24100 SI 17032 SL Si1 24100 1.100000 28.08600
24101 OA 17032 SL O1 24101 -0.675000 15.99940
24102 HG 17032 SL H1 24102 0.400000 2.01600
24103 SI 17033 SL Si1 24103 1.100000 28.08600
24104 OA 17033 SL O1 24104 -0.675000 15.99940
24105 HG 17033 SL H1 24105 0.400000 2.01600
24106 SI 17034 SL Si1 24106 1.100000 28.08600
24107 OA 17034 SL O1 24107 -0.675000 15.99940
24108 HG 17034 SL H1 24108 0.400000 2.01600
24109 SI 17035 SL Si1 24109 1.100000 28.08600
24110 OA 17035 SL O1 24110 -0.675000 15.99940
24111 HG 17035 SL H1 24111 0.400000 2.01600
24112 SI 17036 SL Si1 24112 1.100000 28.08600
24113 OA 17036 SL O1 24113 -0.675000 15.99940
24114 HG 17036 SL H1 24114 0.400000 2.01600
24115 SI 17037 SL Si1 24115 1.100000 28.08600
24116 OA 17037 SL O1 24116 -0.675000 15.99940
24117 HG 17037 SL H1 24117 0.400000 2.01600
24118 SI 17038 SL Si1 24118 1.100000 28.08600
24119 OA 17038 SL O1 24119 -0.675000 15.99940
24120 HG 17038 SL H1 24120 0.400000 2.01600
24121 SI 17039 SL Si1 24121 1.100000 28.08600
24122 OA 17039 SL O1 24122 -0.675000 15.99940
24123 HG 17039 SL H1 24123 0.400000 2.01600
24124 SI 17040 SL Si1 24124 1.100000 28.08600
24125 OA 17040 SL O1 24125 -0.675000 15.99940
24126 HG 17040 SL H1 24126 0.400000 2.01600
24127 SI 17041 SL Si1 24127 1.100000 28.08600
24128 OA 17041 SL O1 24128 -0.675000 15.99940
24129 HG 17041 SL H1 24129 0.400000 2.01600
24130 SI 17042 SL Si1 24130 1.100000 28.08600
24131 OA 17042 SL O1 24131 -0.675000 15.99940
24132 HG 17042 SL H1 24132 0.400000 2.01600
24133 SI 17043 SL Si1 24133 1.100000 28.08600
24134 OA 17043 SL O1 24134 -0.675000 15.99940
24135 HG 17043 SL H1 24135 0.400000 2.01600
24136 SI 17044 SL Si1 24136 1.100000 28.08600
24137 OA 17044 SL O1 24137 -0.675000 15.99940
24138 HG 17044 SL H1 24138 0.400000 2.01600
24139 SI 17045 SL Si1 24139 1.100000 28.08600
24140 OA 17045 SL O1 24140 -0.675000 15.99940
24141 HG 17045 SL H1 24141 0.400000 2.01600
24142 SI 17046 SL Si1 24142 1.100000 28.08600
24143 OA 17046 SL O1 24143 -0.675000 15.99940
24144 HG 17046 SL H1 24144 0.400000 2.01600
24145 SI 17047 SL Si1 24145 1.100000 28.08600
24146 OA 17047 SL O1 24146 -0.675000 15.99940
24147 HG 17047 SL H1 24147 0.400000 2.01600
24148 SI 17048 SL Si1 24148 1.100000 28.08600
24149 OA 17048 SL O1 24149 -0.675000 15.99940
24150 HG 17048 SL H1 24150 0.400000 2.01600
24151 SI 17049 SL Si1 24151 1.100000 28.08600
24152 OA 17049 SL O1 24152 -0.675000 15.99940
24153 HG 17049 SL H1 24153 0.400000 2.01600
24154 SI 17050 SL Si1 24154 1.100000 28.08600
24155 OA 17050 SL O1 24155 -0.675000 15.99940
24156 HG 17050 SL H1 24156 0.400000 2.01600
24157 SI 17051 SL Si1 24157 1.100000 28.08600
24158 OA 17051 SL O1 24158 -0.675000 15.99940
24159 HG 17051 SL H1 24159 0.400000 2.01600
24160 SI 17052 SL Si1 24160 1.100000 28.08600
24161 OA 17052 SL O1 24161 -0.675000 15.99940
24162 HG 17052 SL H1 24162 0.400000 2.01600
24163 SI 17053 SL Si1 24163 1.100000 28.08600
24164 OA 17053 SL O1 24164 -0.675000 15.99940
24165 HG 17053 SL H1 24165 0.400000 2.01600
24166 SI 17054 SL Si1 24166 1.100000 28.08600
24167 OA 17054 SL O1 24167 -0.675000 15.99940
24168 HG 17054 SL H1 24168 0.400000 2.01600
24169 SI 17055 SL Si1 24169 1.100000 28.08600
24170 OA 17055 SL O1 24170 -0.675000 15.99940
24171 HG 17055 SL H1 24171 0.400000 2.01600
24172 SI 17056 SL Si1 24172 1.100000 28.08600
24173 OA 17056 SL O1 24173 -0.675000 15.99940
24174 HG 17056 SL H1 24174 0.400000 2.01600
24175 SI 17057 SL Si1 24175 1.100000 28.08600
24176 OA 17057 SL O1 24176 -0.675000 15.99940
24177 HG 17057 SL H1 24177 0.400000 2.01600
24178 SI 17058 SL Si1 24178 1.100000 28.08600
24179 OA 17058 SL O1 24179 -0.675000 15.99940
24180 HG 17058 SL H1 24180 0.400000 2.01600
24181 SI 17059 SL Si1 24181 1.100000 28.08600
24182 OA 17059 SL O1 24182 -0.675000 15.99940
24183 HG 17059 SL H1 24183 0.400000 2.01600
24184 SI 17060 SL Si1 24184 1.100000 28.08600
24185 OA 17060 SL O1 24185 -0.675000 15.99940
24186 HG 17060 SL H1 24186 0.400000 2.01600
24187 SI 17061 SL Si1 24187 1.100000 28.08600
24188 OA 17061 SL O1 24188 -0.675000 15.99940
24189 HG 17061 SL H1 24189 0.400000 2.01600
24190 SI 17062 SL Si1 24190 1.100000 28.08600
24191 OA 17062 SL O1 24191 -0.675000 15.99940
24192 HG 17062 SL H1 24192 0.400000 2.01600
24193 SI 17063 SL Si1 24193 1.100000 28.08600
24194 OA 17063 SL O1 24194 -0.675000 15.99940
24195 HG 17063 SL H1 24195 0.400000 2.01600
24196 SI 17064 SL Si1 24196 1.100000 28.08600
24197 OA 17064 SL O1 24197 -0.675000 15.99940
24198 HG 17064 SL H1 24198 0.400000 2.01600
24199 SI 17065 SL Si1 24199 1.100000 28.08600
24200 OA 17065 SL O1 24200 -0.675000 15.99940
24201 HG 17065 SL H1 24201 0.400000 2.01600
24202 SI 17066 SL Si1 24202 1.100000 28.08600
24203 OA 17066 SL O1 24203 -0.675000 15.99940
24204 HG 17066 SL H1 24204 0.400000 2.01600
24205 SI 17067 SL Si1 24205 1.100000 28.08600
24206 OA 17067 SL O1 24206 -0.675000 15.99940
24207 HG 17067 SL H1 24207 0.400000 2.01600
24208 SI 17068 SL Si1 24208 1.100000 28.08600
24209 OA 17068 SL O1 24209 -0.675000 15.99940
24210 HG 17068 SL H1 24210 0.400000 2.01600
24211 SI 17069 SL Si1 24211 1.100000 28.08600
24212 OA 17069 SL O1 24212 -0.675000 15.99940
24213 HG 17069 SL H1 24213 0.400000 2.01600
24214 SI 17070 SL Si1 24214 1.100000 28.08600
24215 OA 17070 SL O1 24215 -0.675000 15.99940
24216 HG 17070 SL H1 24216 0.400000 2.01600
24217 SI 17071 SL Si1 24217 1.100000 28.08600
24218 OA 17071 SL O1 24218 -0.675000 15.99940
24219 HG 17071 SL H1 24219 0.400000 2.01600
24220 SI 17072 SL Si1 24220 1.100000 28.08600
24221 OA 17072 SL O1 24221 -0.675000 15.99940
24222 HG 17072 SL H1 24222 0.400000 2.01600
24223 SI 17073 SL Si1 24223 1.100000 28.08600
24224 OA 17073 SL O1 24224 -0.675000 15.99940
24225 HG 17073 SL H1 24225 0.400000 2.01600
24226 SI 17074 SL Si1 24226 1.100000 28.08600
24227 OA 17074 SL O1 24227 -0.675000 15.99940
24228 HG 17074 SL H1 24228 0.400000 2.01600
24229 SI 17075 SL Si1 24229 1.100000 28.08600
24230 OA 17075 SL O1 24230 -0.675000 15.99940
24231 HG 17075 SL H1 24231 0.400000 2.01600
24232 SI 17076 SL Si1 24232 1.100000 28.08600
24233 OA 17076 SL O1 24233 -0.675000 15.99940
24234 HG 17076 SL H1 24234 0.400000 2.01600
24235 SI 17077 SL Si1 24235 1.100000 28.08600
24236 OA 17077 SL O1 24236 -0.675000 15.99940
24237 HG 17077 SL H1 24237 0.400000 2.01600
24238 SI 17078 SL Si1 24238 1.100000 28.08600
24239 OA 17078 SL O1 24239 -0.675000 15.99940
24240 HG 17078 SL H1 24240 0.400000 2.01600
24241 SI 17079 SL Si1 24241 1.100000 28.08600
24242 OA 17079 SL O1 24242 -0.675000 15.99940
24243 HG 17079 SL H1 24243 0.400000 2.01600
24244 SI 17080 SL Si1 24244 1.100000 28.08600
24245 OA 17080 SL O1 24245 -0.675000 15.99940
24246 HG 17080 SL H1 24246 0.400000 2.01600
24247 SI 17081 SL Si1 24247 1.100000 28.08600
24248 OA 17081 SL O1 24248 -0.675000 15.99940
24249 HG 17081 SL H1 24249 0.400000 2.01600
24250 SI 17082 SL Si1 24250 1.100000 28.08600
24251 OA 17082 SL O1 24251 -0.675000 15.99940
24252 HG 17082 SL H1 24252 0.400000 2.01600
24253 SI 17083 SL Si1 24253 1.100000 28.08600
24254 OA 17083 SL O1 24254 -0.675000 15.99940
24255 HG 17083 SL H1 24255 0.400000 2.01600
24256 SI 17084 SL Si1 24256 1.100000 28.08600
24257 OA 17084 SL O1 24257 -0.675000 15.99940
24258 HG 17084 SL H1 24258 0.400000 2.01600
24259 SI 17085 SL Si1 24259 1.100000 28.08600
24260 OA 17085 SL O1 24260 -0.675000 15.99940
24261 HG 17085 SL H1 24261 0.400000 2.01600
24262 SI 17086 SL Si1 24262 1.100000 28.08600
24263 OA 17086 SL O1 24263 -0.675000 15.99940
24264 HG 17086 SL H1 24264 0.400000 2.01600
24265 SI 17087 SL Si1 24265 1.100000 28.08600
24266 OA 17087 SL O1 24266 -0.675000 15.99940
24267 HG 17087 SL H1 24267 0.400000 2.01600
24268 SI 17088 SL Si1 24268 1.100000 28.08600
24269 OA 17088 SL O1 24269 -0.675000 15.99940
24270 HG 17088 SL H1 24270 0.400000 2.01600
24271 SI 17089 SL Si1 24271 1.100000 28.08600
24272 OA 17089 SL O1 24272 -0.675000 15.99940
24273 HG 17089 SL H1 24273 0.400000 2.01600
24274 SI 17090 SL Si1 24274 1.100000 28.08600
24275 OA 17090 SL O1 24275 -0.675000 15.99940
24276 HG 17090 SL H1 24276 0.400000 2.01600
24277 SI 17091 SL Si1 24277 1.100000 28.08600
24278 OA 17091 SL O1 24278 -0.675000 15.99940
24279 HG 17091 SL H1 24279 0.400000 2.01600
24280 SI 17092 SL Si1 24280 1.100000 28.08600
24281 OA 17092 SL O1 24281 -0.675000 15.99940
24282 HG 17092 SL H1 24282 0.400000 2.01600
24283 SI 17093 SL Si1 24283 1.100000 28.08600
24284 OA 17093 SL O1 24284 -0.675000 15.99940
24285 HG 17093 SL H1 24285 0.400000 2.01600
24286 SI 17094 SL Si1 24286 1.100000 28.08600
24287 OA 17094 SL O1 24287 -0.675000 15.99940
24288 HG 17094 SL H1 24288 0.400000 2.01600
24289 SI 17095 SL Si1 24289 1.100000 28.08600
24290 OA 17095 SL O1 24290 -0.675000 15.99940
24291 HG 17095 SL H1 24291 0.400000 2.01600
24292 SI 17096 SL Si1 24292 1.100000 28.08600
24293 OA 17096 SL O1 24293 -0.675000 15.99940
24294 HG 17096 SL H1 24294 0.400000 2.01600
24295 SI 17097 SL Si1 24295 1.100000 28.08600
24296 OA 17097 SL O1 24296 -0.675000 15.99940
24297 HG 17097 SL H1 24297 0.400000 2.01600
24298 SI 17098 SL Si1 24298 1.100000 28.08600
24299 OA 17098 SL O1 24299 -0.675000 15.99940
24300 HG 17098 SL H1 24300 0.400000 2.01600
24301 SI 17099 SL Si1 24301 1.100000 28.08600
24302 OA 17099 SL O1 24302 -0.675000 15.99940
24303 HG 17099 SL H1 24303 0.400000 2.01600
24304 SI 17100 SL Si1 24304 1.100000 28.08600
24305 OA 17100 SL O1 24305 -0.675000 15.99940
24306 HG 17100 SL H1 24306 0.400000 2.01600
24307 SI 17101 SLG Si1 24307 1.100000 28.08600
24308 OA 17101 SLG O1 24308 -0.675000 15.99940
24309 HG 17101 SLG H1 24309 0.400000 2.01600
24310 OA 17101 SLG O2 24310 -0.675000 15.99940
24311 HG 17101 SLG H2 24311 0.400000 2.01600
24312 SI 17102 SLG Si1 24312 1.100000 28.08600
24313 OA 17102 SLG O1 24313 -0.675000 15.99940
24314 HG 17102 SLG H1 24314 0.400000 2.01600
24315 OA 17102 SLG O2 24315 -0.675000 15.99940
24316 HG 17102 SLG H2 24316 0.400000 2.01600
24317 SI 17103 SLG Si1 24317 1.100000 28.08600
24318 OA 17103 SLG O1 24318 -0.675000 15.99940
24319 HG 17103 SLG H1 24319 0.400000 2.01600
24320 OA 17103 SLG O2 24320 -0.675000 15.99940
24321 HG 17103 SLG H2 24321 0.400000 2.01600
24322 SI 17104 SLG Si1 24322 1.100000 28.08600
24323 OA 17104 SLG O1 24323 -0.675000 15.99940
24324 HG 17104 SLG H1 24324 0.400000 2.01600
24325 OA 17104 SLG O2 24325 -0.675000 15.99940
24326 HG 17104 SLG H2 24326 0.400000 2.01600
24327 SI 17105 SLG Si1 24327 1.100000 28.08600
24328 OA 17105 SLG O1 24328 -0.675000 15.99940
24329 HG 17105 SLG H1 24329 0.400000 2.01600
24330 OA 17105 SLG O2 24330 -0.675000 15.99940
24331 HG 17105 SLG H2 24331 0.400000 2.01600
24332 SI 17106 SLG Si1 24332 1.100000 28.08600
24333 OA 17106 SLG O1 24333 -0.675000 15.99940
24334 HG 17106 SLG H1 24334 0.400000 2.01600
24335 OA 17106 SLG O2 24335 -0.675000 15.99940
24336 HG 17106 SLG H2 24336 0.400000 2.01600
24337 SI 17107 SLG Si1 24337 1.100000 28.08600
24338 OA 17107 SLG O1 24338 -0.675000 15.99940
24339 HG 17107 SLG H1 24339 0.400000 2.01600
24340 OA 17107 SLG O2 24340 -0.675000 15.99940
24341 HG 17107 SLG H2 24341 0.400000 2.01600
24342 SI 17108 SLG Si1 24342 1.100000 28.08600
24343 OA 17108 SLG O1 24343 -0.675000 15.99940
24344 HG 17108 SLG H1 24344 0.400000 2.01600
24345 OA 17108 SLG O2 24345 -0.675000 15.99940
24346 HG 17108 SLG H2 24346 0.400000 2.01600
24347 SI 17109 SLG Si1 24347 1.100000 28.08600
24348 OA 17109 SLG O1 24348 -0.675000 15.99940
24349 HG 17109 SLG H1 24349 0.400000 2.01600
24350 OA 17109 SLG O2 24350 -0.675000 15.99940
24351 HG 17109 SLG H2 24351 0.400000 2.01600
24352 SI 17110 SLG Si1 24352 1.100000 28.08600
24353 OA 17110 SLG O1 24353 -0.675000 15.99940
24354 HG 17110 SLG H1 24354 0.400000 2.01600
24355 OA 17110 SLG O2 24355 -0.675000 15.99940
24356 HG 17110 SLG H2 24356 0.400000 2.01600
24357 SI 17111 SLG Si1 24357 1.100000 28.08600
24358 OA 17111 SLG O1 24358 -0.675000 15.99940
24359 HG 17111 SLG H1 24359 0.400000 2.01600
24360 OA 17111 SLG O2 24360 -0.675000 15.99940
24361 HG 17111 SLG H2 24361 0.400000 2.01600
24362 SI 17112 SLG Si1 24362 1.100000 28.08600
24363 OA 17112 SLG O1 24363 -0.675000 15.99940
24364 HG 17112 SLG H1 24364 0.400000 2.01600
24365 OA 17112 SLG O2 24365 -0.675000 15.99940
24366 HG 17112 SLG H2 24366 0.400000 2.01600
24367 SI 17113 SLG Si1 24367 1.100000 28.08600
24368 OA 17113 SLG O1 24368 -0.675000 15.99940
24369 HG 17113 SLG H1 24369 0.400000 2.01600
24370 OA 17113 SLG O2 24370 -0.675000 15.99940
24371 HG 17113 SLG H2 24371 0.400000 2.01600
24372 SI 17114 SLG Si1 24372 1.100000 28.08600
24373 OA 17114 SLG O1 24373 -0.675000 15.99940
24374 HG 17114 SLG H1 24374 0.400000 2.01600
24375 OA 17114 SLG O2 24375 -0.675000 15.99940
24376 HG 17114 SLG H2 24376 0.400000 2.01600
24377 SI 17115 SLG Si1 24377 1.100000 28.08600
24378 OA 17115 SLG O1 24378 -0.675000 15.99940
24379 HG 17115 SLG H1 24379 0.400000 2.01600
24380 OA 17115 SLG O2 24380 -0.675000 15.99940
24381 HG 17115 SLG H2 24381 0.400000 2.01600
24382 SI 17116 SLG Si1 24382 1.100000 28.08600
24383 OA 17116 SLG O1 24383 -0.675000 15.99940
24384 HG 17116 SLG H1 24384 0.400000 2.01600
24385 OA 17116 SLG O2 24385 -0.675000 15.99940
24386 HG 17116 SLG H2 24386 0.400000 2.01600
24387 SI 17117 SLG Si1 24387 1.100000 28.08600
24388 OA 17117 SLG O1 24388 -0.675000 15.99940
24389 HG 17117 SLG H1 24389 0.400000 2.01600
24390 OA 17117 SLG O2 24390 -0.675000 15.99940
24391 HG 17117 SLG H2 24391 0.400000 2.01600
24392 SI 17118 SLG Si1 24392 1.100000 28.08600
24393 OA 17118 SLG O1 24393 -0.675000 15.99940
24394 HG 17118 SLG H1 24394 0.400000 2.01600
24395 OA 17118 SLG O2 24395 -0.675000 15.99940
24396 HG 17118 SLG H2 24396 0.400000 2.01600
24397 SI 17119 SLG Si1 24397 1.100000 28.08600
24398 OA 17119 SLG O1 24398 -0.675000 15.99940
24399 HG 17119 SLG H1 24399 0.400000 2.01600
24400 OA 17119 SLG O2 24400 -0.675000 15.99940
24401 HG 17119 SLG H2 24401 0.400000 2.01600
24402 SI 17120 SLG Si1 24402 1.100000 28.08600
24403 OA 17120 SLG O1 24403 -0.675000 15.99940
24404 HG 17120 SLG H1 24404 0.400000 2.01600
24405 OA 17120 SLG O2 24405 -0.675000 15.99940
24406 HG 17120 SLG H2 24406 0.400000 2.01600
24407 SI 17121 SLG Si1 24407 1.100000 28.08600
24408 OA 17121 SLG O1 24408 -0.675000 15.99940
24409 HG 17121 SLG H1 24409 0.400000 2.01600
24410 OA 17121 SLG O2 24410 -0.675000 15.99940
24411 HG 17121 SLG H2 24411 0.400000 2.01600
24412 SI 17122 SLG Si1 24412 1.100000 28.08600
24413 OA 17122 SLG O1 24413 -0.675000 15.99940
24414 HG 17122 SLG H1 24414 0.400000 2.01600
24415 OA 17122 SLG O2 24415 -0.675000 15.99940
24416 HG 17122 SLG H2 24416 0.400000 2.01600
24417 SI 17123 SLG Si1 24417 1.100000 28.08600
24418 OA 17123 SLG O1 24418 -0.675000 15.99940
24419 HG 17123 SLG H1 24419 0.400000 2.01600
24420 OA 17123 SLG O2 24420 -0.675000 15.99940
24421 HG 17123 SLG H2 24421 0.400000 2.01600
24422 SI 17124 SLG Si1 24422 1.100000 28.08600
24423 OA 17124 SLG O1 24423 -0.675000 15.99940
24424 HG 17124 SLG H1 24424 0.400000 2.01600
24425 OA 17124 SLG O2 24425 -0.675000 15.99940
24426 HG 17124 SLG H2 24426 0.400000 2.01600
24427 SI 17125 SLG Si1 24427 1.100000 28.08600
24428 OA 17125 SLG O1 24428 -0.675000 15.99940
24429 HG 17125 SLG H1 24429 0.400000 2.01600
24430 OA 17125 SLG O2 24430 -0.675000 15.99940
24431 HG 17125 SLG H2 24431 0.400000 2.01600
24432 SI 17126 SLG Si1 24432 1.100000 28.08600
24433 OA 17126 SLG O1 24433 -0.675000 15.99940
24434 HG 17126 SLG H1 24434 0.400000 2.01600
24435 OA 17126 SLG O2 24435 -0.675000 15.99940
24436 HG 17126 SLG H2 24436 0.400000 2.01600
24437 SI 17127 SLG Si1 24437 1.100000 28.08600
24438 OA 17127 SLG O1 24438 -0.675000 15.99940
24439 HG 17127 SLG H1 24439 0.400000 2.01600
24440 OA 17127 SLG O2 24440 -0.675000 15.99940
24441 HG 17127 SLG H2 24441 0.400000 2.01600
24442 SI 17128 SLG Si1 24442 1.100000 28.08600
24443 OA 17128 SLG O1 24443 -0.675000 15.99940
24444 HG 17128 SLG H1 24444 0.400000 2.01600
24445 OA 17128 SLG O2 24445 -0.675000 15.99940
24446 HG 17128 SLG H2 24446 0.400000 2.01600
24447 SI 17129 SLG Si1 24447 1.100000 28.08600
24448 OA 17129 SLG O1 24448 -0.675000 15.99940
24449 HG 17129 SLG H1 24449 0.400000 2.01600
24450 OA 17129 SLG O2 24450 -0.675000 15.99940
24451 HG 17129 SLG H2 24451 0.400000 2.01600
24452 SI 17130 SLG Si1 24452 1.100000 28.08600
24453 OA 17130 SLG O1 24453 -0.675000 15.99940
24454 HG 17130 SLG H1 24454 0.400000 2.01600
24455 OA 17130 SLG O2 24455 -0.675000 15.99940
24456 HG 17130 SLG H2 24456 0.400000 2.01600
24457 SI 17131 SLG Si1 24457 1.100000 28.08600
24458 OA 17131 SLG O1 24458 -0.675000 15.99940
24459 HG 17131 SLG H1 24459 0.400000 2.01600
24460 OA 17131 SLG O2 24460 -0.675000 15.99940
24461 HG 17131 SLG H2 24461 0.400000 2.01600
24462 SI 17132 SLG Si1 24462 1.100000 28.08600
24463 OA 17132 SLG O1 24463 -0.675000 15.99940
24464 HG 17132 SLG H1 24464 0.400000 2.01600
24465 OA 17132 SLG O2 24465 -0.675000 15.99940
24466 HG 17132 SLG H2 24466 0.400000 2.01600
24467 SI 17133 SLG Si1 24467 1.100000 28.08600
24468 OA 17133 SLG O1 24468 -0.675000 15.99940
24469 HG 17133 SLG H1 24469 0.400000 2.01600
24470 OA 17133 SLG O2 24470 -0.675000 15.99940
24471 HG 17133 SLG H2 24471 0.400000 2.01600
24472 SI 17134 SLG Si1 24472 1.100000 28.08600
24473 OA 17134 SLG O1 24473 -0.675000 15.99940
24474 HG 17134 SLG H1 24474 0.400000 2.01600
24475 OA 17134 SLG O2 24475 -0.675000 15.99940
24476 HG 17134 SLG H2 24476 0.400000 2.01600
24477 SI 17135 SLG Si1 24477 1.100000 28.08600
24478 OA 17135 SLG O1 24478 -0.675000 15.99940
24479 HG 17135 SLG H1 24479 0.400000 2.01600
24480 OA 17135 SLG O2 24480 -0.675000 15.99940
24481 HG 17135 SLG H2 24481 0.400000 2.01600
24482 SI 17136 SLG Si1 24482 1.100000 28.08600
24483 OA 17136 SLG O1 24483 -0.675000 15.99940
24484 HG 17136 SLG H1 24484 0.400000 2.01600
24485 OA 17136 SLG O2 24485 -0.675000 15.99940
24486 HG 17136 SLG H2 24486 0.400000 2.01600

[ bonds ]
; ai aj funct params
1 11252 1 0.16500 119244.000000
1 14630 1 0.16500 119244.000000
2 11252 1 0.16500 119244.000000
2 15290 1 0.16500 119244.000000
3 11252 1 0.16500 119244.000000
3 15469 1 0.16500 119244.000000
4 11252 1 0.16500 119244.000000
4 11577 1 0.16500 119244.000000
5 11372 1 0.16500 119244.000000
5 21373 1 0.16500 119244.000000
6 20977 1 0.16500 119244.000000
6 21373 1 0.16500 119244.000000
7 11253 1 0.16500 119244.000000
7 15396 1 0.16500 119244.000000
8 11253 1 0.16500 119244.000000
8 16193 1 0.16500 119244.000000
9 11253 1 0.16500 119244.000000
9 11629 1 0.16500 119244.000000
10 11253 1 0.16500 119244.000000
10 12263 1 0.16500 119244.000000
11 11254 1 0.16500 119244.000000
11 22669 1 0.16500 119244.000000
12 11254 1 0.16500 119244.000000
12 12404 1 0.16500 119244.000000
13 11254 1 0.16500 119244.000000
13 13363 1 0.16500 119244.000000
14 11255 1 0.16500 119244.000000
14 11287 1 0.16500 119244.000000
15 11255 1 0.16500 119244.000000
15 13295 1 0.16500 119244.000000
16 11255 1 0.16500 119244.000000
16 13550 1 0.16500 119244.000000
17 11255 1 0.16500 119244.000000
17 12344 1 0.16500 119244.000000
18 12173 1 0.16500 119244.000000
18 19537 1 0.16500 119244.000000
19 15062 1 0.16500 119244.000000
19 23602 1 0.16500 119244.000000
20 13908 1 0.16500 119244.000000
20 23602 1 0.16500 119244.000000
21 19453 1 0.16500 119244.000000
21 23602 1 0.16500 119244.000000
22 11256 1 0.16500 119244.000000
22 14879 1 0.16500 119244.000000
23 11256 1 0.16500 119244.000000
23 15795 1 0.16500 119244.000000
24 11256 1 0.16500 119244.000000
24 24412 1 0.16500 119244.000000
25 11256 1 0.16500 119244.000000
25 12622 1 0.16500 119244.000000
26 11257 1 0.16500 119244.000000
26 12083 1 0.16500 119244.000000
27 11257 1 0.16500 119244.000000
27 13592 1 0.16500 119244.000000
28 11257 1 0.16500 119244.000000
28 14728 1 0.16500 119244.000000
29 11257 1 0.16500 119244.000000
29 16067 1 0.16500 119244.000000
30 21889 1 0.16500 119244.000000
30 23893 1 0.16500 119244.000000
31 16479 1 0.16500 119244.000000
31 21889 1 0.16500 119244.000000
32 13617 1 0.16500 119244.000000
32 21889 1 0.16500 119244.000000
33 11258 1 0.16500 119244.000000
33 13944 1 0.16500 119244.000000
34 11258 1 0.16500 119244.000000
34 15207 1 0.16500 119244.000000
35 11258 1 0.16500 119244.000000
35 12560 1 0.16500 119244.000000
36 11258 1 0.16500 119244.000000
36 14894 1 0.16500 119244.000000
37 11259 1 0.16500 119244.000000
37 13893 1 0.16500 119244.000000
38 11259 1 0.16500 119244.000000
38 13255 1 0.16500 119244.000000
39 11259 1 0.16500 119244.000000
39 12488 1 0.16500 119244.000000
40 11259 1 0.16500 119244.000000
40 13789 1 0.16500 119244.000000
41 11260 1 0.16500 119244.000000
41 14872 1 0.16500 119244.000000
42 11260 1 0.16500 119244.000000
42 14259 1 0.16500 119244.000000
43 11260 1 0.16500 119244.000000
43 15513 1 0.16500 119244.000000
44 11260 1 0.16500 119244.000000
44 15871 1 0.16500 119244.000000
45 11261 1 0.16500 119244.000000
45 14985 1 0.16500 119244.000000
46 11261 1 0.16500 119244.000000
46 22201 1 0.16500 119244.000000
47 11261 1 0.16500 119244.000000
47 13970 1 0.16500 119244.000000
48 11261 1 0.16500 119244.000000
48 15353 1 0.16500 119244.000000
49 11262 1 0.16500 119244.000000
49 14245 1 0.16500 119244.000000
50 11262 1 0.16500 119244.000000
50 14566 1 0.16500 119244.000000
51 11262 1 0.16500 119244.000000
51 13698 1 0.16500 119244.000000
52 11262 1 0.16500 119244.000000
52 12027 1 0.16500 119244.000000
53 11263 1 0.16500 119244.000000
53 13765 1 0.16500 119244.000000
54 11263 1 0.16500 119244.000000
54 12469 1 0.16500 119244.000000
55 11263 1 0.16500 119244.000000
55 15456 1 0.16500 119244.000000
56 11263 1 0.16500 119244.000000
56 12095 1 0.16500 119244.000000
57 11264 1 0.16500 119244.000000
57 13793 1 0.16500 119244.000000
58 11264 1 0.16500 119244.000000
58 13625 1 0.16500 119244.000000
59 11264 1 0.16500 119244.000000
59 11682 1 0.16500 119244.000000
60 11264 1 0.16500 119244.000000
60 15044 1 0.16500 119244.000000
61 11265 1 0.16500 119244.000000
61 17067 1 0.16500 119244.000000
62 11265 1 0.16500 119244.000000
62 12267 1 0.16500 119244.000000
63 11265 1 0.16500 119244.000000
63 11290 1 0.16500 119244.000000
64 11265 1 0.16500 119244.000000
64 12007 1 0.16500 119244.000000
65 11266 1 0.16500 119244.000000
65 11430 1 0.16500 119244.000000
66 11266 1 0.16500 119244.000000
66 15647 1 0.16500 119244.000000
67 11266 1 0.16500 119244.000000
67 15691 1 0.16500 119244.000000
68 16220 1 0.16500 119244.000000
68 18661 1 0.16500 119244.000000
69 14665 1 0.16500 119244.000000
69 18661 1 0.16500 119244.000000
70 11267 1 0.16500 119244.000000
70 14935 1 0.16500 119244.000000
71 11267 1 0.16500 119244.000000
71 13578 1 0.16500 119244.000000
72 11267 1 0.16500 119244.000000
72 15982 1 0.16500 119244.000000
73 11267 1 0.16500 119244.000000
73 15581 1 0.16500 119244.000000
74 11268 1 0.16500 119244.000000
74 23041 1 0.16500 119244.000000
75 11268 1 0.16500 119244.000000
75 23992 1 0.16500 119244.000000
76 11268 1 0.16500 119244.000000
76 15447 1 0.16500 119244.000000
77 11268 1 0.16500 119244.000000
77 16246 1 0.16500 119244.000000
78 11269 1 0.16500 119244.000000
78 12269 1 0.16500 119244.000000
79 11269 1 0.16500 119244.000000
79 11641 1 0.16500 119244.000000
80 11269 1 0.16500 119244.000000
80 14827 1 0.16500 119244.000000
81 11269 1 0.16500 119244.000000
81 14402 1 0.16500 119244.000000
82 11270 1 0.16500 119244.000000
82 13549 1 0.16500 119244.000000
83 11270 1 0.16500 119244.000000
83 16249 1 0.16500 119244.000000
84 11270 1 0.16500 119244.000000
84 14420 1 0.16500 119244.000000
85 11270 1 0.16500 119244.000000
85 16103 1 0.16500 119244.000000
86 13312 1 0.16500 119244.000000
86 13338 1 0.16500 119244.000000
87 11271 1 0.16500 119244.000000
87 12950 1 0.16500 119244.000000
88 11271 1 0.16500 119244.000000
88 13338 1 0.16500 119244.000000
89 11271 1 0.16500 119244.000000
89 15450 1 0.16500 119244.000000
90 23605 1 0.16500 119244.000000
90 24160 1 0.16500 119244.000000
91 15548 1 0.16500 119244.000000
91 23605 1 0.16500 119244.000000
92 15154 1 0.16500 119244.000000
92 23605 1 0.16500 119244.000000
93 11272 1 0.16500 119244.000000
93 13513 1 0.16500 119244.000000
94 11272 1 0.16500 119244.000000
94 13274 1 0.16500 119244.000000
95 11272 1 0.16500 119244.000000
95 15836 1 0.16500 119244.000000
96 11272 1 0.16500 119244.000000
96 12447 1 0.16500 119244.000000
97 11273 1 0.16500 119244.000000
97 15189 1 0.16500 119244.000000
98 11273 1 0.16500 119244.000000
98 12761 1 0.16500 119244.000000
99 11273 1 0.16500 119244.000000
99 13616 1 0.16500 119244.000000
100 11273 1 0.16500 119244.000000
100 15708 1 0.16500 119244.000000
101 11274 1 0.16500 119244.000000
101 11510 1 0.16500 119244.000000
102 11274 1 0.16500 119244.000000
102 13710 1 0.16500 119244.000000
103 11274 1 0.16500 119244.000000
103 12236 1 0.16500 119244.000000
104 11274 1 0.16500 119244.000000
104 15845 1 0.16500 119244.000000
105 11275 1 0.16500 119244.000000
105 11939 1 0.16500 119244.000000
106 11275 1 0.16500 119244.000000
106 16200 1 0.16500 119244.000000
107 11275 1 0.16500 119244.000000
107 15611 1 0.16500 119244.000000
108 11275 1 0.16500 119244.000000
108 15848 1 0.16500 119244.000000
109 11276 1 0.16500 119244.000000
109 14391 1 0.16500 119244.000000
110 11276 1 0.16500 119244.000000
110 15772 1 0.16500 119244.000000
111 11276 1 0.16500 119244.000000
111 13284 1 0.16500 119244.000000
112 11276 1 0.16500 119244.000000
112 15488 1 0.16500 119244.000000
113 11277 1 0.16500 119244.000000
113 11632 1 0.16500 119244.000000
114 11277 1 0.16500 119244.000000
114 12359 1 0.16500 119244.000000
115 11277 1 0.16500 119244.000000
115 15759 1 0.16500 119244.000000
116 11277 1 0.16500 119244.000000
116 11686 1 0.16500 119244.000000
117 11278 1 0.16500 119244.000000
117 14075 1 0.16500 119244.000000
118 11278 1 0.16500 119244.000000
118 11683 1 0.16500 119244.000000
119 11278 1 0.16500 119244.000000
119 14815 1 0.16500 119244.000000
120 11278 1 0.16500 119244.000000
120 12423 1 0.16500 119244.000000
121 16220 1 0.16500 119244.000000
121 16311 1 0.16500 119244.000000
122 16311 1 0.16500 119244.000000
122 24292 1 0.16500 119244.000000
123 11366 1 0.16500 119244.000000
123 19717 1 0.16500 119244.000000
124 16135 1 0.16500 119244.000000
124 19717 1 0.16500 119244.000000
125 19717 1 0.16500 119244.000000
125 20317 1 0.16500 119244.000000
126 11279 1 0.16500 119244.000000
126 11691 1 0.16500 119244.000000
127 11279 1 0.16500 119244.000000
127 11281 1 0.16500 119244.000000
128 11279 1 0.16500 119244.000000
128 11696 1 0.16500 119244.000000
129 11279 1 0.16500 119244.000000
129 11594 1 0.16500 119244.000000
130 11280 1 0.16500 119244.000000
130 12643 1 0.16500 119244.000000
131 11280 1 0.16500 119244.000000
131 13485 1 0.16500 119244.000000
132 11280 1 0.16500 119244.000000
132 13405 1 0.16500 119244.000000
133 11280 1 0.16500 119244.000000
133 15245 1 0.16500 119244.000000
134 11281 1 0.16500 119244.000000
134 12984 1 0.16500 119244.000000
135 11281 1 0.16500 119244.000000
135 13260 1 0.16500 119244.000000
136 11281 1 0.16500 119244.000000
136 14923 1 0.16500 119244.000000
137 11282 1 0.16500 119244.000000
137 19729 1 0.16500 119244.000000
138 11282 1 0.16500 119244.000000
138 14911 1 0.16500 119244.000000
139 11282 1 0.16500 119244.000000
139 12046 1 0.16500 119244.000000
140 11283 1 0.16500 119244.000000
140 12428 1 0.16500 119244.000000
141 11283 1 0.16500 119244.000000
141 13448 1 0.16500 119244.000000
142 11283 1 0.16500 119244.000000
142 19189 1 0.16500 119244.000000
143 11283 1 0.16500 119244.000000
143 11713 1 0.16500 119244.000000
144 11284 1 0.16500 119244.000000
144 14908 1 0.16500 119244.000000
145 11284 1 0.16500 119244.000000
145 17585 1 0.16500 119244.000000
146 11284 1 0.16500 119244.000000
146 23731 1 0.16500 119244.000000
147 11284 1 0.16500 119244.000000
147 24352 1 0.16500 119244.000000
148 13595 1 0.16500 119244.000000
148 14734 1 0.16500 119244.000000
149 11285 1 0.16500 119244.000000
149 14542 1 0.16500 119244.000000
150 11285 1 0.16500 119244.000000
150 14734 1 0.16500 119244.000000
151 11285 1 0.16500 119244.000000
151 11522 1 0.16500 119244.000000
152 11286 1 0.16500 119244.000000
152 14324 1 0.16500 119244.000000
153 11286 1 0.16500 119244.000000
153 11650 1 0.16500 119244.000000
154 11286 1 0.16500 119244.000000
154 14432 1 0.16500 119244.000000
155 11286 1 0.16500 119244.000000
155 11700 1 0.16500 119244.000000
156 11287 1 0.16500 119244.000000
156 11952 1 0.16500 119244.000000
157 11287 1 0.16500 119244.000000
157 13207 1 0.16500 119244.000000
158 11287 1 0.16500 119244.000000
158 13794 1 0.16500 119244.000000
159 13325 1 0.16500 119244.000000
159 13438 1 0.16500 119244.000000
160 11288 1 0.16500 119244.000000
160 11550 1 0.16500 119244.000000
161 11288 1 0.16500 119244.000000
161 12502 1 0.16500 119244.000000
162 11288 1 0.16500 119244.000000
162 14869 1 0.16500 119244.000000
163 11289 1 0.16500 119244.000000
163 12981 1 0.16500 119244.000000
164 11289 1 0.16500 119244.000000
164 13195 1 0.16500 119244.000000
165 11289 1 0.16500 119244.000000
165 15781 1 0.16500 119244.000000
166 11289 1 0.16500 119244.000000
166 14384 1 0.16500 119244.000000
167 11290 1 0.16500 119244.000000
167 13449 1 0.16500 119244.000000
168 11290 1 0.16500 119244.000000
168 23764 1 0.16500 119244.000000
169 11290 1 0.16500 119244.000000
169 13858 1 0.16500 119244.000000
170 11291 1 0.16500 119244.000000
170 15848 1 0.16500 119244.000000
171 11291 1 0.16500 119244.000000
171 11914 1 0.16500 119244.000000
172 11291 1 0.16500 119244.000000
172 13187 1 0.16500 119244.000000
173 11291 1 0.16500 119244.000000
173 15258 1 0.16500 119244.000000
174 11292 1 0.16500 119244.000000
174 19213 1 0.16500 119244.000000
175 11292 1 0.16500 119244.000000
175 24103 1 0.16500 119244.000000
176 11292 1 0.16500 119244.000000
176 11412 1 0.16500 119244.000000
177 11292 1 0.16500 119244.000000
177 16269 1 0.16500 119244.000000
178 22825 1 0.16500 119244.000000
178 24121 1 0.16500 119244.000000
179 15810 1 0.16500 119244.000000
179 22825 1 0.16500 119244.000000
180 11293 1 0.16500 119244.000000
180 12520 1 0.16500 119244.000000
181 11293 1 0.16500 119244.000000
181 13575 1 0.16500 119244.000000
182 11293 1 0.16500 119244.000000
182 15692 1 0.16500 119244.000000
183 11293 1 0.16500 119244.000000
183 15754 1 0.16500 119244.000000
184 11294 1 0.16500 119244.000000
184 14195 1 0.16500 119244.000000
185 11294 1 0.16500 119244.000000
185 13058 1 0.16500 119244.000000
186 11294 1 0.16500 119244.000000
186 12434 1 0.16500 119244.000000
187 11294 1 0.16500 119244.000000
187 13522 1 0.16500 119244.000000
188 11295 1 0.16500 119244.000000
188 15369 1 0.16500 119244.000000
189 11295 1 0.16500 119244.000000
189 13427 1 0.16500 119244.000000
190 11295 1 0.16500 119244.000000
190 15061 1 0.16500 119244.000000
191 11295 1 0.16500 119244.000000
191 11922 1 0.16500 119244.000000
192 13837 1 0.16500 119244.000000
192 18131 1 0.16500 119244.000000
193 11296 1 0.16500 119244.000000
193 12780 1 0.16500 119244.000000
194 11296 1 0.16500 119244.000000
194 14438 1 0.16500 119244.000000
195 11296 1 0.16500 119244.000000
195 14279 1 0.16500 119244.000000
196 11296 1 0.16500 119244.000000
196 12293 1 0.16500 119244.000000
197 11297 1 0.16500 119244.000000
197 16012 1 0.16500 119244.000000
198 11297 1 0.16500 119244.000000
198 13720 1 0.16500 119244.000000
199 11297 1 0.16500 119244.000000
199 13991 1 0.16500 119244.000000
200 11297 1 0.16500 119244.000000
200 12216 1 0.16500 119244.000000
201 11298 1 0.16500 119244.000000
201 14961 1 0.16500 119244.000000
202 11298 1 0.16500 119244.000000
202 14758 1 0.16500 119244.000000
203 11298 1 0.16500 119244.000000
203 13066 1 0.16500 119244.000000
204 12307 1 0.16500 119244.000000
204 14758 1 0.16500 119244.000000
205 17011 1 0.16500 119244.000000
205 18913 1 0.16500 119244.000000
206 11299 1 0.16500 119244.000000
206 15576 1 0.16500 119244.000000
207 11299 1 0.16500 119244.000000
207 18913 1 0.16500 119244.000000
208 11299 1 0.16500 119244.000000
208 11626 1 0.16500 119244.000000
209 11300 1 0.16500 119244.000000
209 12774 1 0.16500 119244.000000
210 11300 1 0.16500 119244.000000
210 16179 1 0.16500 119244.000000
211 11300 1 0.16500 119244.000000
211 15406 1 0.16500 119244.000000
212 11300 1 0.16500 119244.000000
212 16002 1 0.16500 119244.000000
213 12864 1 0.16500 119244.000000
213 16165 1 0.16500 119244.000000
214 11301 1 0.16500 119244.000000
214 12864 1 0.16500 119244.000000
215 11301 1 0.16500 119244.000000
215 13956 1 0.16500 119244.000000
216 11301 1 0.16500 119244.000000
216 13006 1 0.16500 119244.000000
217 11302 1 0.16500 119244.000000
217 13970 1 0.16500 119244.000000
218 11302 1 0.16500 119244.000000
218 15185 1 0.16500 119244.000000
219 11302 1 0.16500 119244.000000
219 12115 1 0.16500 119244.000000
220 11302 1 0.16500 119244.000000
220 15357 1 0.16500 119244.000000
221 18409 1 0.16500 119244.000000
221 18697 1 0.16500 119244.000000
222 12847 1 0.16500 119244.000000
222 18409 1 0.16500 119244.000000
223 16016 1 0.16500 119244.000000
223 18409 1 0.16500 119244.000000
224 11303 1 0.16500 119244.000000
224 16159 1 0.16500 119244.000000
225 11303 1 0.16500 119244.000000
225 13589 1 0.16500 119244.000000
226 11303 1 0.16500 119244.000000
226 11630 1 0.16500 119244.000000
227 11303 1 0.16500 119244.000000
227 16039 1 0.16500 119244.000000
228 11304 1 0.16500 119244.000000
228 13186 1 0.16500 119244.000000
229 11304 1 0.16500 119244.000000
229 13767 1 0.16500 119244.000000
230 11304 1 0.16500 119244.000000
230 11857 1 0.16500 119244.000000
231 11304 1 0.16500 119244.000000
231 15716 1 0.16500 119244.000000
232 21721 1 0.16500 119244.000000
232 23608 1 0.16500 119244.000000
233 15800 1 0.16500 119244.000000
233 23608 1 0.16500 119244.000000
234 14880 1 0.16500 119244.000000
234 23608 1 0.16500 119244.000000
235 13820 1 0.16500 119244.000000
235 15919 1 0.16500 119244.000000
236 13820 1 0.16500 119244.000000
236 14255 1 0.16500 119244.000000
237 11305 1 0.16500 119244.000000
237 13820 1 0.16500 119244.000000
238 13029 1 0.16500 119244.000000
238 13820 1 0.16500 119244.000000
239 23611 1 0.16500 119244.000000
239 24178 1 0.16500 119244.000000
240 15495 1 0.16500 119244.000000
240 23611 1 0.16500 119244.000000
241 18173 1 0.16500 119244.000000
241 23611 1 0.16500 119244.000000
242 15664 1 0.16500 119244.000000
242 20209 1 0.16500 119244.000000
243 13220 1 0.16500 119244.000000
243 20209 1 0.16500 119244.000000
244 14584 1 0.16500 119244.000000
244 20209 1 0.16500 119244.000000
245 17193 1 0.16500 119244.000000
245 19981 1 0.16500 119244.000000
246 11306 1 0.16500 119244.000000
246 12674 1 0.16500 119244.000000
247 11306 1 0.16500 119244.000000
247 16118 1 0.16500 119244.000000
248 11306 1 0.16500 119244.000000
248 12717 1 0.16500 119244.000000
249 11306 1 0.16500 119244.000000
249 11375 1 0.16500 119244.000000
250 11657 1 0.16500 119244.000000
250 13385 1 0.16500 119244.000000
251 11307 1 0.16500 119244.000000
251 14839 1 0.16500 119244.000000
252 11307 1 0.16500 119244.000000
252 13987 1 0.16500 119244.000000
253 11307 1 0.16500 119244.000000
253 13385 1 0.16500 119244.000000
254 11746 1 0.16500 119244.000000
254 24307 1 0.16500 119244.000000
255 23671 1 0.16500 119244.000000
255 24307 1 0.16500 119244.000000
256 11308 1 0.16500 119244.000000
256 13757 1 0.16500 119244.000000
257 11308 1 0.16500 119244.000000
257 13560 1 0.16500 119244.000000
258 11308 1 0.16500 119244.000000
258 14523 1 0.16500 119244.000000
259 11308 1 0.16500 119244.000000
259 13819 1 0.16500 119244.000000
260 11309 1 0.16500 119244.000000
260 23689 1 0.16500 119244.000000
261 11309 1 0.16500 119244.000000
261 11941 1 0.16500 119244.000000
262 11309 1 0.16500 119244.000000
262 23257 1 0.16500 119244.000000
263 11309 1 0.16500 119244.000000
263 11321 1 0.16500 119244.000000
264 11310 1 0.16500 119244.000000
264 15656 1 0.16500 119244.000000
265 11310 1 0.16500 119244.000000
265 14197 1 0.16500 119244.000000
266 11310 1 0.16500 119244.000000
266 16222 1 0.16500 119244.000000
267 11310 1 0.16500 119244.000000
267 12112 1 0.16500 119244.000000
268 11311 1 0.16500 119244.000000
268 12637 1 0.16500 119244.000000
269 11311 1 0.16500 119244.000000
269 12756 1 0.16500 119244.000000
270 11311 1 0.16500 119244.000000
270 15300 1 0.16500 119244.000000
271 11311 1 0.16500 119244.000000
271 11346 1 0.16500 119244.000000
272 20077 1 0.16500 119244.000000
272 20281 1 0.16500 119244.000000
273 13852 1 0.16500 119244.000000
273 20077 1 0.16500 119244.000000
274 20077 1 0.16500 119244.000000
274 21085 1 0.16500 119244.000000
275 11312 1 0.16500 119244.000000
275 14482 1 0.16500 119244.000000
276 11312 1 0.16500 119244.000000
276 15305 1 0.16500 119244.000000
277 11312 1 0.16500 119244.000000
277 12006 1 0.16500 119244.000000
278 11312 1 0.16500 119244.000000
278 14195 1 0.16500 119244.000000
279 11313 1 0.16500 119244.000000
279 13204 1 0.16500 119244.000000
280 11313 1 0.16500 119244.000000
280 11844 1 0.16500 119244.000000
281 11313 1 0.16500 119244.000000
281 15016 1 0.16500 119244.000000
282 11313 1 0.16500 119244.000000
282 13692 1 0.16500 119244.000000
283 14582 1 0.16500 119244.000000
283 23614 1 0.16500 119244.000000
284 12867 1 0.16500 119244.000000
284 23614 1 0.16500 119244.000000
285 21313 1 0.16500 119244.000000
285 23614 1 0.16500 119244.000000
286 11314 1 0.16500 119244.000000
286 12130 1 0.16500 119244.000000
287 11314 1 0.16500 119244.000000
287 12858 1 0.16500 119244.000000
288 11314 1 0.16500 119244.000000
288 14280 1 0.16500 119244.000000
289 11314 1 0.16500 119244.000000
289 11323 1 0.16500 119244.000000
290 11315 1 0.16500 119244.000000
290 11737 1 0.16500 119244.000000
291 11315 1 0.16500 119244.000000
291 12065 1 0.16500 119244.000000
292 11315 1 0.16500 119244.000000
292 11393 1 0.16500 119244.000000
293 11737 1 0.16500 119244.000000
293 12581 1 0.16500 119244.000000
294 11316 1 0.16500 119244.000000
294 14346 1 0.16500 119244.000000
295 11316 1 0.16500 119244.000000
295 15675 1 0.16500 119244.000000
296 11316 1 0.16500 119244.000000
296 13272 1 0.16500 119244.000000
297 13272 1 0.16500 119244.000000
297 13588 1 0.16500 119244.000000
298 11317 1 0.16500 119244.000000
298 15099 1 0.16500 119244.000000
299 11317 1 0.16500 119244.000000
299 15219 1 0.16500 119244.000000
300 11317 1 0.16500 119244.000000
300 11937 1 0.16500 119244.000000
301 11317 1 0.16500 119244.000000
301 11920 1 0.16500 119244.000000
302 11318 1 0.16500 119244.000000
302 14189 1 0.16500 119244.000000
303 11318 1 0.16500 119244.000000
303 11991 1 0.16500 119244.000000
304 11318 1 0.16500 119244.000000
304 14014 1 0.16500 119244.000000
305 11318 1 0.16500 119244.000000
305 15301 1 0.16500 119244.000000
306 11319 1 0.16500 119244.000000
306 24001 1 0.16500 119244.000000
307 11319 1 0.16500 119244.000000
307 12879 1 0.16500 119244.000000
308 11319 1 0.16500 119244.000000
308 14316 1 0.16500 119244.000000
309 11319 1 0.16500 119244.000000
309 15816 1 0.16500 119244.000000
310 11320 1 0.16500 119244.000000
310 12390 1 0.16500 119244.000000
311 11320 1 0.16500 119244.000000
311 11569 1 0.16500 119244.000000
312 11320 1 0.16500 119244.000000
312 15025 1 0.16500 119244.000000
313 11320 1 0.16500 119244.000000
313 16188 1 0.16500 119244.000000
314 11321 1 0.16500 119244.000000
314 20461 1 0.16500 119244.000000
315 11321 1 0.16500 119244.000000
315 12657 1 0.16500 119244.000000
316 11322 1 0.16500 119244.000000
316 11537 1 0.16500 119244.000000
317 11322 1 0.16500 119244.000000
317 12604 1 0.16500 119244.000000
318 11322 1 0.16500 119244.000000
318 13941 1 0.16500 119244.000000
319 11322 1 0.16500 119244.000000
319 15464 1 0.16500 119244.000000
320 15590 1 0.16500 119244.000000
320 23221 1 0.16500 119244.000000
321 11323 1 0.16500 119244.000000
321 15013 1 0.16500 119244.000000
322 11323 1 0.16500 119244.000000
322 11922 1 0.16500 119244.000000
323 11323 1 0.16500 119244.000000
323 15877 1 0.16500 119244.000000
324 11324 1 0.16500 119244.000000
324 14788 1 0.16500 119244.000000
325 11324 1 0.16500 119244.000000
325 13969 1 0.16500 119244.000000
326 11324 1 0.16500 119244.000000
326 15141 1 0.16500 119244.000000
327 11324 1 0.16500 119244.000000
327 13670 1 0.16500 119244.000000
328 11325 1 0.16500 119244.000000
328 11642 1 0.16500 119244.000000
329 11325 1 0.16500 119244.000000
329 14447 1 0.16500 119244.000000
330 11325 1 0.16500 119244.000000
330 16199 1 0.16500 119244.000000
331 11325 1 0.16500 119244.000000
331 11481 1 0.16500 119244.000000
332 11326 1 0.16500 119244.000000
332 15377 1 0.16500 119244.000000
333 11326 1 0.16500 119244.000000
333 12063 1 0.16500 119244.000000
334 11326 1 0.16500 119244.000000
334 11954 1 0.16500 119244.000000
335 11326 1 0.16500 119244.000000
335 13694 1 0.16500 119244.000000
336 12623 1 0.16500 119244.000000
336 15162 1 0.16500 119244.000000
337 14801 1 0.16500 119244.000000
337 15162 1 0.16500 119244.000000
338 11327 1 0.16500 119244.000000
338 16113 1 0.16500 119244.000000
339 11590 1 0.16500 119244.000000
339 15162 1 0.16500 119244.000000
340 11328 1 0.16500 119244.000000
340 12492 1 0.16500 119244.000000
341 11328 1 0.16500 119244.000000
341 13675 1 0.16500 119244.000000
342 11328 1 0.16500 119244.000000
342 12583 1 0.16500 119244.000000
343 11328 1 0.16500 119244.000000
343 14313 1 0.16500 119244.000000
344 11329 1 0.16500 119244.000000
344 14497 1 0.16500 119244.000000
345 11329 1 0.16500 119244.000000
345 11636 1 0.16500 119244.000000
346 11329 1 0.16500 119244.000000
346 14811 1 0.16500 119244.000000
347 11329 1 0.16500 119244.000000
347 11382 1 0.16500 119244.000000
348 12667 1 0.16500 119244.000000
348 18397 1 0.16500 119244.000000
349 13878 1 0.16500 119244.000000
349 18397 1 0.16500 119244.000000
350 18397 1 0.16500 119244.000000
350 23617 1 0.16500 119244.000000
351 14134 1 0.16500 119244.000000
351 23617 1 0.16500 119244.000000
352 11330 1 0.16500 119244.000000
352 15600 1 0.16500 119244.000000
353 11330 1 0.16500 119244.000000
353 13447 1 0.16500 119244.000000
354 11330 1 0.16500 119244.000000
354 14200 1 0.16500 119244.000000
355 11330 1 0.16500 119244.000000
355 16005 1 0.16500 119244.000000
356 11331 1 0.16500 119244.000000
356 22021 1 0.16500 119244.000000
357 11331 1 0.16500 119244.000000
357 24187 1 0.16500 119244.000000
358 11331 1 0.16500 119244.000000
358 14829 1 0.16500 119244.000000
359 11331 1 0.16500 119244.000000
359 13753 1 0.16500 119244.000000
360 11332 1 0.16500 119244.000000
360 12571 1 0.16500 119244.000000
361 11332 1 0.16500 119244.000000
361 15578 1 0.16500 119244.000000
362 11332 1 0.16500 119244.000000
362 11431 1 0.16500 119244.000000
363 11332 1 0.16500 119244.000000
363 12335 1 0.16500 119244.000000
364 11333 1 0.16500 119244.000000
364 16122 1 0.16500 119244.000000
365 11333 1 0.16500 119244.000000
365 15898 1 0.16500 119244.000000
366 11333 1 0.16500 119244.000000
366 12532 1 0.16500 119244.000000
367 11333 1 0.16500 119244.000000
367 14121 1 0.16500 119244.000000
368 13618 1 0.16500 119244.000000
368 15929 1 0.16500 119244.000000
369 15929 1 0.16500 119244.000000
369 18625 1 0.16500 119244.000000
370 12224 1 0.16500 119244.000000
370 15929 1 0.16500 119244.000000
371 12927 1 0.16500 119244.000000
371 21229 1 0.16500 119244.000000
372 11334 1 0.16500 119244.000000
372 12927 1 0.16500 119244.000000
373 12927 1 0.16500 119244.000000
373 15223 1 0.16500 119244.000000
374 11334 1 0.16500 119244.000000
374 19429 1 0.16500 119244.000000
375 11392 1 0.16500 119244.000000
375 11712 1 0.16500 119244.000000
376 11712 1 0.16500 119244.000000
376 12559 1 0.16500 119244.000000
377 11335 1 0.16500 119244.000000
377 22585 1 0.16500 119244.000000
378 11335 1 0.16500 119244.000000
378 11712 1 0.16500 119244.000000
379 11336 1 0.16500 119244.000000
379 12479 1 0.16500 119244.000000
380 11336 1 0.16500 119244.000000
380 13404 1 0.16500 119244.000000
381 11336 1 0.16500 119244.000000
381 13912 1 0.16500 119244.000000
382 11336 1 0.16500 119244.000000
382 16114 1 0.16500 119244.000000
383 11337 1 0.16500 119244.000000
383 20509 1 0.16500 119244.000000
384 11337 1 0.16500 119244.000000
384 15054 1 0.16500 119244.000000
385 11337 1 0.16500 119244.000000
385 15544 1 0.16500 119244.000000
386 11337 1 0.16500 119244.000000
386 14174 1 0.16500 119244.000000
387 11338 1 0.16500 119244.000000
387 15166 1 0.16500 119244.000000
388 11338 1 0.16500 119244.000000
388 11400 1 0.16500 119244.000000
389 11338 1 0.16500 119244.000000
389 12764 1 0.16500 119244.000000
390 11338 1 0.16500 119244.000000
390 11545 1 0.16500 119244.000000
391 11339 1 0.16500 119244.000000
391 13157 1 0.16500 119244.000000
392 11339 1 0.16500 119244.000000
392 12912 1 0.16500 119244.000000
393 11339 1 0.16500 119244.000000
393 11739 1 0.16500 119244.000000
394 11339 1 0.16500 119244.000000
394 12412 1 0.16500 119244.000000
395 18271 1 0.16500 119244.000000
395 24058 1 0.16500 119244.000000
396 11704 1 0.16500 119244.000000
396 18271 1 0.16500 119244.000000
397 11340 1 0.16500 119244.000000
397 13984 1 0.16500 119244.000000
398 11495 1 0.16500 119244.000000
398 14156 1 0.16500 119244.000000
399 11340 1 0.16500 119244.000000
399 12425 1 0.16500 119244.000000
400 11340 1 0.16500 119244.000000
400 14156 1 0.16500 119244.000000
401 11341 1 0.16500 119244.000000
401 11409 1 0.16500 119244.000000
402 11341 1 0.16500 119244.000000
402 13899 1 0.16500 119244.000000
403 11341 1 0.16500 119244.000000
403 16203 1 0.16500 119244.000000
404 11341 1 0.16500 119244.000000
404 11440 1 0.16500 119244.000000
405 11342 1 0.16500 119244.000000
405 15355 1 0.16500 119244.000000
406 11342 1 0.16500 119244.000000
406 12846 1 0.16500 119244.000000
407 13373 1 0.16500 119244.000000
407 15008 1 0.16500 119244.000000
408 11342 1 0.16500 119244.000000
408 15008 1 0.16500 119244.000000
409 11343 1 0.16500 119244.000000
409 12282 1 0.16500 119244.000000
410 11343 1 0.16500 119244.000000
410 12796 1 0.16500 119244.000000
411 11343 1 0.16500 119244.000000
411 13920 1 0.16500 119244.000000
412 11343 1 0.16500 119244.000000
412 15950 1 0.16500 119244.000000
413 11344 1 0.16500 119244.000000
413 12921 1 0.16500 119244.000000
414 11344 1 0.16500 119244.000000
414 16221 1 0.16500 119244.000000
415 11344 1 0.16500 119244.000000
415 12413 1 0.16500 119244.000000
416 11344 1 0.16500 119244.000000
416 24163 1 0.16500 119244.000000
417 18481 1 0.16500 119244.000000
417 24193 1 0.16500 119244.000000
418 13036 1 0.16500 119244.000000
418 18481 1 0.16500 119244.000000
419 16081 1 0.16500 119244.000000
419 18481 1 0.16500 119244.000000
420 11345 1 0.16500 119244.000000
420 13005 1 0.16500 119244.000000
421 11345 1 0.16500 119244.000000
421 13828 1 0.16500 119244.000000
422 11345 1 0.16500 119244.000000
422 13732 1 0.16500 119244.000000
423 11345 1 0.16500 119244.000000
423 12957 1 0.16500 119244.000000
424 11346 1 0.16500 119244.000000
424 14034 1 0.16500 119244.000000
425 11346 1 0.16500 119244.000000
425 12560 1 0.16500 119244.000000
426 11346 1 0.16500 119244.000000
426 11375 1 0.16500 119244.000000
427 11347 1 0.16500 119244.000000
427 15543 1 0.16500 119244.000000
428 11347 1 0.16500 119244.000000
428 16094 1 0.16500 119244.000000
429 11347 1 0.16500 119244.000000
429 13947 1 0.16500 119244.000000
430 11347 1 0.16500 119244.000000
430 11445 1 0.16500 119244.000000
431 11348 1 0.16500 119244.000000
431 12546 1 0.16500 119244.000000
432 11348 1 0.16500 119244.000000
432 12619 1 0.16500 119244.000000
433 11348 1 0.16500 119244.000000
433 13223 1 0.16500 119244.000000
434 11348 1 0.16500 119244.000000
434 15446 1 0.16500 119244.000000
435 11927 1 0.16500 119244.000000
435 14097 1 0.16500 119244.000000
436 11349 1 0.16500 119244.000000
436 11927 1 0.16500 119244.000000
437 11349 1 0.16500 119244.000000
437 12899 1 0.16500 119244.000000
438 11349 1 0.16500 119244.000000
438 13712 1 0.16500 119244.000000
439 13248 1 0.16500 119244.000000
439 18061 1 0.16500 119244.000000
440 18061 1 0.16500 119244.000000
440 23722 1 0.16500 119244.000000
441 11350 1 0.16500 119244.000000
441 16759 1 0.16500 119244.000000
442 11350 1 0.16500 119244.000000
442 16717 1 0.16500 119244.000000
443 11350 1 0.16500 119244.000000
443 14964 1 0.16500 119244.000000
444 11350 1 0.16500 119244.000000
444 15453 1 0.16500 119244.000000
445 11351 1 0.16500 119244.000000
445 11397 1 0.16500 119244.000000
446 11351 1 0.16500 119244.000000
446 12544 1 0.16500 119244.000000
447 11351 1 0.16500 119244.000000
447 13816 1 0.16500 119244.000000
448 11351 1 0.16500 119244.000000
448 14486 1 0.16500 119244.000000
449 12914 1 0.16500 119244.000000
449 18089 1 0.16500 119244.000000
450 11780 1 0.16500 119244.000000
450 18089 1 0.16500 119244.000000
451 11352 1 0.16500 119244.000000
451 13284 1 0.16500 119244.000000
452 11352 1 0.16500 119244.000000
452 15589 1 0.16500 119244.000000
453 11352 1 0.16500 119244.000000
453 14096 1 0.16500 119244.000000
454 11352 1 0.16500 119244.000000
454 12638 1 0.16500 119244.000000
455 11353 1 0.16500 119244.000000
455 14175 1 0.16500 119244.000000
456 11353 1 0.16500 119244.000000
456 11745 1 0.16500 119244.000000
457 11353 1 0.16500 119244.000000
457 12220 1 0.16500 119244.000000
458 11353 1 0.16500 119244.000000
458 19753 1 0.16500 119244.000000
459 16025 1 0.16500 119244.000000
459 20197 1 0.16500 119244.000000
460 17235 1 0.16500 119244.000000
460 20197 1 0.16500 119244.000000
461 11354 1 0.16500 119244.000000
461 15234 1 0.16500 119244.000000
462 11354 1 0.16500 119244.000000
462 13142 1 0.16500 119244.000000
463 11354 1 0.16500 119244.000000
463 14595 1 0.16500 119244.000000
464 11354 1 0.16500 119244.000000
464 15246 1 0.16500 119244.000000
465 11355 1 0.16500 119244.000000
465 16149 1 0.16500 119244.000000
466 11355 1 0.16500 119244.000000
466 15947 1 0.16500 119244.000000
467 11355 1 0.16500 119244.000000
467 13661 1 0.16500 119244.000000
468 11355 1 0.16500 119244.000000
468 12804 1 0.16500 119244.000000
469 11356 1 0.16500 119244.000000
469 22105 1 0.16500 119244.000000
470 11356 1 0.16500 119244.000000
470 11941 1 0.16500 119244.000000
471 11356 1 0.16500 119244.000000
471 15274 1 0.16500 119244.000000
472 11356 1 0.16500 119244.000000
472 14185 1 0.16500 119244.000000
473 12911 1 0.16500 119244.000000
473 21181 1 0.16500 119244.000000
474 14689 1 0.16500 119244.000000
474 21181 1 0.16500 119244.000000
475 11357 1 0.16500 119244.000000
475 13650 1 0.16500 119244.000000
476 11357 1 0.16500 119244.000000
476 14522 1 0.16500 119244.000000
477 11357 1 0.16500 119244.000000
477 14614 1 0.16500 119244.000000
478 11357 1 0.16500 119244.000000
478 13120 1 0.16500 119244.000000
479 11358 1 0.16500 119244.000000
479 15221 1 0.16500 119244.000000
480 13758 1 0.16500 119244.000000
480 18901 1 0.16500 119244.000000
481 16003 1 0.16500 119244.000000
481 21973 1 0.16500 119244.000000
482 11358 1 0.16500 119244.000000
482 21973 1 0.16500 119244.000000
483 11359 1 0.16500 119244.000000
483 12742 1 0.16500 119244.000000
484 11359 1 0.16500 119244.000000
484 12671 1 0.16500 119244.000000
485 11359 1 0.16500 119244.000000
485 14321 1 0.16500 119244.000000
486 11359 1 0.16500 119244.000000
486 13924 1 0.16500 119244.000000
487 11360 1 0.16500 119244.000000
487 11829 1 0.16500 119244.000000
488 11360 1 0.16500 119244.000000
488 11463 1 0.16500 119244.000000
489 11360 1 0.16500 119244.000000
489 15866 1 0.16500 119244.000000
490 11360 1 0.16500 119244.000000
490 13023 1 0.16500 119244.000000
491 11361 1 0.16500 119244.000000
491 17179 1 0.16500 119244.000000
492 11361 1 0.16500 119244.000000
492 13766 1 0.16500 119244.000000
493 11361 1 0.16500 119244.000000
493 16221 1 0.16500 119244.000000
494 11361 1 0.16500 119244.000000
494 15526 1 0.16500 119244.000000
495 13453 1 0.16500 119244.000000
495 15836 1 0.16500 119244.000000
496 11362 1 0.16500 119244.000000
496 15306 1 0.16500 119244.000000
497 11362 1 0.16500 119244.000000
497 13453 1 0.16500 119244.000000
498 11362 1 0.16500 119244.000000
498 15115 1 0.16500 119244.000000
499 14592 1 0.16500 119244.000000
499 24382 1 0.16500 119244.000000
500 11363 1 0.16500 119244.000000
500 14599 1 0.16500 119244.000000
501 11363 1 0.16500 119244.000000
501 11727 1 0.16500 119244.000000
502 11363 1 0.16500 119244.000000
502 14874 1 0.16500 119244.000000
503 11363 1 0.16500 119244.000000
503 11371 1 0.16500 119244.000000
504 11364 1 0.16500 119244.000000
504 14944 1 0.16500 119244.000000
505 11364 1 0.16500 119244.000000
505 13016 1 0.16500 119244.000000
506 11364 1 0.16500 119244.000000
506 14401 1 0.16500 119244.000000
507 11364 1 0.16500 119244.000000
507 12263 1 0.16500 119244.000000
508 11365 1 0.16500 119244.000000
508 13262 1 0.16500 119244.000000
509 11365 1 0.16500 119244.000000
509 13393 1 0.16500 119244.000000
510 11365 1 0.16500 119244.000000
510 13188 1 0.16500 119244.000000
511 11365 1 0.16500 119244.000000
511 15259 1 0.16500 119244.000000
512 11366 1 0.16500 119244.000000
512 24387 1 0.16500 119244.000000
513 11366 1 0.16500 119244.000000
513 12080 1 0.16500 119244.000000
514 11366 1 0.16500 119244.000000
514 23389 1 0.16500 119244.000000
515 11367 1 0.16500 119244.000000
515 12964 1 0.16500 119244.000000
516 11367 1 0.16500 119244.000000
516 15674 1 0.16500 119244.000000
517 11367 1 0.16500 119244.000000
517 14564 1 0.16500 119244.000000
518 22969 1 0.16500 119244.000000
518 24241 1 0.16500 119244.000000
519 22969 1 0.16500 119244.000000
519 23785 1 0.16500 119244.000000
520 16100 1 0.16500 119244.000000
520 22969 1 0.16500 119244.000000
521 11368 1 0.16500 119244.000000
521 23521 1 0.16500 119244.000000
522 11368 1 0.16500 119244.000000
522 15064 1 0.16500 119244.000000
523 12501 1 0.16500 119244.000000
523 23521 1 0.16500 119244.000000
524 11368 1 0.16500 119244.000000
524 12084 1 0.16500 119244.000000
525 11369 1 0.16500 119244.000000
525 15991 1 0.16500 119244.000000
526 11369 1 0.16500 119244.000000
526 16197 1 0.16500 119244.000000
527 11369 1 0.16500 119244.000000
527 16047 1 0.16500 119244.000000
528 11369 1 0.16500 119244.000000
528 11757 1 0.16500 119244.000000
529 11370 1 0.16500 119244.000000
529 12400 1 0.16500 119244.000000
530 11370 1 0.16500 119244.000000
530 15272 1 0.16500 119244.000000
531 11370 1 0.16500 119244.000000
531 11529 1 0.16500 119244.000000
532 11370 1 0.16500 119244.000000
532 15408 1 0.16500 119244.000000
533 11371 1 0.16500 119244.000000
533 11996 1 0.16500 119244.000000
534 11371 1 0.16500 119244.000000
534 15109 1 0.16500 119244.000000
535 11371 1 0.16500 119244.000000
535 12787 1 0.16500 119244.000000
536 11372 1 0.16500 119244.000000
536 15492 1 0.16500 119244.000000
537 11372 1 0.16500 119244.000000
537 12227 1 0.16500 119244.000000
538 11372 1 0.16500 119244.000000
538 15583 1 0.16500 119244.000000
539 11373 1 0.16500 119244.000000
539 13741 1 0.16500 119244.000000
540 11373 1 0.16500 119244.000000
540 15405 1 0.16500 119244.000000
541 11373 1 0.16500 119244.000000
541 13334 1 0.16500 119244.000000
542 11373 1 0.16500 119244.000000
542 12677 1 0.16500 119244.000000
543 12142 1 0.16500 119244.000000
543 12434 1 0.16500 119244.000000
544 12434 1 0.16500 119244.000000
544 15968 1 0.16500 119244.000000
545 11374 1 0.16500 119244.000000
545 12434 1 0.16500 119244.000000
546 11375 1 0.16500 119244.000000
546 12692 1 0.16500 119244.000000
547 11375 1 0.16500 119244.000000
547 12302 1 0.16500 119244.000000
548 11376 1 0.16500 119244.000000
548 15739 1 0.16500 119244.000000
549 11376 1 0.16500 119244.000000
549 14061 1 0.16500 119244.000000
550 11376 1 0.16500 119244.000000
550 15291 1 0.16500 119244.000000
551 11376 1 0.16500 119244.000000
551 15546 1 0.16500 119244.000000
552 11377 1 0.16500 119244.000000
552 13024 1 0.16500 119244.000000
553 11377 1 0.16500 119244.000000
553 11517 1 0.16500 119244.000000
554 11377 1 0.16500 119244.000000
554 15468 1 0.16500 119244.000000
555 11517 1 0.16500 119244.000000
555 12843 1 0.16500 119244.000000
556 15898 1 0.16500 119244.000000
556 19249 1 0.16500 119244.000000
557 13233 1 0.16500 119244.000000
557 19249 1 0.16500 119244.000000
558 13697 1 0.16500 119244.000000
558 19249 1 0.16500 119244.000000
559 12341 1 0.16500 119244.000000
559 22693 1 0.16500 119244.000000
560 11658 1 0.16500 119244.000000
560 22693 1 0.16500 119244.000000
561 12612 1 0.16500 119244.000000
561 22693 1 0.16500 119244.000000
562 11378 1 0.16500 119244.000000
562 16180 1 0.16500 119244.000000
563 11378 1 0.16500 119244.000000
563 12229 1 0.16500 119244.000000
564 11378 1 0.16500 119244.000000
564 14786 1 0.16500 119244.000000
565 11378 1 0.16500 119244.000000
565 13830 1 0.16500 119244.000000
566 11379 1 0.16500 119244.000000
566 11958 1 0.16500 119244.000000
567 11379 1 0.16500 119244.000000
567 13827 1 0.16500 119244.000000
568 11379 1 0.16500 119244.000000
568 14719 1 0.16500 119244.000000
569 11379 1 0.16500 119244.000000
569 13000 1 0.16500 119244.000000
570 11380 1 0.16500 119244.000000
570 11501 1 0.16500 119244.000000
571 11380 1 0.16500 119244.000000
571 12370 1 0.16500 119244.000000
572 11380 1 0.16500 119244.000000
572 16055 1 0.16500 119244.000000
573 11380 1 0.16500 119244.000000
573 13183 1 0.16500 119244.000000
574 11381 1 0.16500 119244.000000
574 14492 1 0.16500 119244.000000
575 11381 1 0.16500 119244.000000
575 15146 1 0.16500 119244.000000
576 11381 1 0.16500 119244.000000
576 13080 1 0.16500 119244.000000
577 11381 1 0.16500 119244.000000
577 12253 1 0.16500 119244.000000
578 14343 1 0.16500 119244.000000
578 19729 1 0.16500 119244.000000
579 19729 1 0.16500 119244.000000
579 23719 1 0.16500 119244.000000
580 11382 1 0.16500 119244.000000
580 11953 1 0.16500 119244.000000
581 11382 1 0.16500 119244.000000
581 11808 1 0.16500 119244.000000
582 11382 1 0.16500 119244.000000
582 13382 1 0.16500 119244.000000
583 14404 1 0.16500 119244.000000
583 18257 1 0.16500 119244.000000
584 13110 1 0.16500 119244.000000
584 18257 1 0.16500 119244.000000
585 11383 1 0.16500 119244.000000
585 15756 1 0.16500 119244.000000
586 11383 1 0.16500 119244.000000
586 15149 1 0.16500 119244.000000
587 11383 1 0.16500 119244.000000
587 16118 1 0.16500 119244.000000
588 11383 1 0.16500 119244.000000
588 12081 1 0.16500 119244.000000
589 11384 1 0.16500 119244.000000
589 14352 1 0.16500 119244.000000
590 11384 1 0.16500 119244.000000
590 15981 1 0.16500 119244.000000
591 11384 1 0.16500 119244.000000
591 12199 1 0.16500 119244.000000
592 11384 1 0.16500 119244.000000
592 12898 1 0.16500 119244.000000
593 11385 1 0.16500 119244.000000
593 12028 1 0.16500 119244.000000
594 11385 1 0.16500 119244.000000
594 14368 1 0.16500 119244.000000
595 11385 1 0.16500 119244.000000
595 15321 1 0.16500 119244.000000
596 11385 1 0.16500 119244.000000
596 14525 1 0.16500 119244.000000
597 11386 1 0.16500 119244.000000
597 14158 1 0.16500 119244.000000
598 11386 1 0.16500 119244.000000
598 20569 1 0.16500 119244.000000
599 11386 1 0.16500 119244.000000
599 11434 1 0.16500 119244.000000
600 11386 1 0.16500 119244.000000
600 13019 1 0.16500 119244.000000
601 17263 1 0.16500 119244.000000
601 19177 1 0.16500 119244.000000
602 15164 1 0.16500 119244.000000
602 19177 1 0.16500 119244.000000
603 16297 1 0.16500 119244.000000
603 19177 1 0.16500 119244.000000
604 11387 1 0.16500 119244.000000
604 14207 1 0.16500 119244.000000
605 11387 1 0.16500 119244.000000
605 14424 1 0.16500 119244.000000
606 11387 1 0.16500 119244.000000
606 11388 1 0.16500 119244.000000
607 11387 1 0.16500 119244.000000
607 15794 1 0.16500 119244.000000
608 11388 1 0.16500 119244.000000
608 12627 1 0.16500 119244.000000
609 11388 1 0.16500 119244.000000
609 11507 1 0.16500 119244.000000
610 11388 1 0.16500 119244.000000
610 12528 1 0.16500 119244.000000
611 11389 1 0.16500 119244.000000
611 13384 1 0.16500 119244.000000
612 11389 1 0.16500 119244.000000
612 12135 1 0.16500 119244.000000
613 11389 1 0.16500 119244.000000
613 15428 1 0.16500 119244.000000
614 11389 1 0.16500 119244.000000
614 16254 1 0.16500 119244.000000
615 11390 1 0.16500 119244.000000
615 14657 1 0.16500 119244.000000
616 11390 1 0.16500 119244.000000
616 14176 1 0.16500 119244.000000
617 11390 1 0.16500 119244.000000
617 14969 1 0.16500 119244.000000
618 11390 1 0.16500 119244.000000
618 13928 1 0.16500 119244.000000
619 14628 1 0.16500 119244.000000
619 22249 1 0.16500 119244.000000
620 22249 1 0.16500 119244.000000
620 24154 1 0.16500 119244.000000
621 14317 1 0.16500 119244.000000
621 22249 1 0.16500 119244.000000
622 11391 1 0.16500 119244.000000
622 15244 1 0.16500 119244.000000
623 11391 1 0.16500 119244.000000
623 12451 1 0.16500 119244.000000
624 11391 1 0.16500 119244.000000
624 13168 1 0.16500 119244.000000
625 11391 1 0.16500 119244.000000
625 13563 1 0.16500 119244.000000
626 11392 1 0.16500 119244.000000
626 14865 1 0.16500 119244.000000
627 11392 1 0.16500 119244.000000
627 15151 1 0.16500 119244.000000
628 11392 1 0.16500 119244.000000
628 11869 1 0.16500 119244.000000
629 11393 1 0.16500 119244.000000
629 11400 1 0.16500 119244.000000
630 11393 1 0.16500 119244.000000
630 13570 1 0.16500 119244.000000
631 11393 1 0.16500 119244.000000
631 15376 1 0.16500 119244.000000
632 11394 1 0.16500 119244.000000
632 15449 1 0.16500 119244.000000
633 11394 1 0.16500 119244.000000
633 13746 1 0.16500 119244.000000
634 11394 1 0.16500 119244.000000
634 12245 1 0.16500 119244.000000
635 11394 1 0.16500 119244.000000
635 11933 1 0.16500 119244.000000
636 11395 1 0.16500 119244.000000
636 15124 1 0.16500 119244.000000
637 11395 1 0.16500 119244.000000
637 11994 1 0.16500 119244.000000
638 11395 1 0.16500 119244.000000
638 14034 1 0.16500 119244.000000
639 11395 1 0.16500 119244.000000
639 14894 1 0.16500 119244.000000
640 11396 1 0.16500 119244.000000
640 11673 1 0.16500 119244.000000
641 11396 1 0.16500 119244.000000
641 12144 1 0.16500 119244.000000
642 11396 1 0.16500 119244.000000
642 13842 1 0.16500 119244.000000
643 11396 1 0.16500 119244.000000
643 14873 1 0.16500 119244.000000
644 11397 1 0.16500 119244.000000
644 12134 1 0.16500 119244.000000
645 11397 1 0.16500 119244.000000
645 16271 1 0.16500 119244.000000
646 11397 1 0.16500 119244.000000
646 11648 1 0.16500 119244.000000
647 11398 1 0.16500 119244.000000
647 12554 1 0.16500 119244.000000
648 11398 1 0.16500 119244.000000
648 14353 1 0.16500 119244.000000
649 11398 1 0.16500 119244.000000
649 13901 1 0.16500 119244.000000
650 11398 1 0.16500 119244.000000
650 15296 1 0.16500 119244.000000
651 11399 1 0.16500 119244.000000
651 13377 1 0.16500 119244.000000
652 11399 1 0.16500 119244.000000
652 17767 1 0.16500 119244.000000
653 11399 1 0.16500 119244.000000
653 13926 1 0.16500 119244.000000
654 11399 1 0.16500 119244.000000
654 19441 1 0.16500 119244.000000
655 11400 1 0.16500 119244.000000
655 11963 1 0.16500 119244.000000
656 11400 1 0.16500 119244.000000
656 11770 1 0.16500 119244.000000
657 11401 1 0.16500 119244.000000
657 13491 1 0.16500 119244.000000
658 11401 1 0.16500 119244.000000
658 12339 1 0.16500 119244.000000
659 11401 1 0.16500 119244.000000
659 13087 1 0.16500 119244.000000
660 12339 1 0.16500 119244.000000
660 16261 1 0.16500 119244.000000
661 11402 1 0.16500 119244.000000
661 15747 1 0.16500 119244.000000
662 11402 1 0.16500 119244.000000
662 16187 1 0.16500 119244.000000
663 14269 1 0.16500 119244.000000
663 16187 1 0.16500 119244.000000
664 11402 1 0.16500 119244.000000
664 12365 1 0.16500 119244.000000
665 11403 1 0.16500 119244.000000
665 15462 1 0.16500 119244.000000
666 14247 1 0.16500 119244.000000
666 15462 1 0.16500 119244.000000
667 11403 1 0.16500 119244.000000
667 13018 1 0.16500 119244.000000
668 11403 1 0.16500 119244.000000
668 11558 1 0.16500 119244.000000
669 12143 1 0.16500 119244.000000
669 23620 1 0.16500 119244.000000
670 14720 1 0.16500 119244.000000
670 23620 1 0.16500 119244.000000
671 11404 1 0.16500 119244.000000
671 13863 1 0.16500 119244.000000
672 11404 1 0.16500 119244.000000
672 14748 1 0.16500 119244.000000
673 12169 1 0.16500 119244.000000
673 13863 1 0.16500 119244.000000
674 11404 1 0.16500 119244.000000
674 12619 1 0.16500 119244.000000
675 11405 1 0.16500 119244.000000
675 12361 1 0.16500 119244.000000
676 11405 1 0.16500 119244.000000
676 24133 1 0.16500 119244.000000
677 11405 1 0.16500 119244.000000
677 11718 1 0.16500 119244.000000
678 11406 1 0.16500 119244.000000
678 11446 1 0.16500 119244.000000
679 11406 1 0.16500 119244.000000
679 13667 1 0.16500 119244.000000
680 11406 1 0.16500 119244.000000
680 16056 1 0.16500 119244.000000
681 11446 1 0.16500 119244.000000
681 15500 1 0.16500 119244.000000
682 11407 1 0.16500 119244.000000
682 12674 1 0.16500 119244.000000
683 13822 1 0.16500 119244.000000
683 15300 1 0.16500 119244.000000
684 11407 1 0.16500 119244.000000
684 13457 1 0.16500 119244.000000
685 11407 1 0.16500 119244.000000
685 13822 1 0.16500 119244.000000
686 11408 1 0.16500 119244.000000
686 12974 1 0.16500 119244.000000
687 11408 1 0.16500 119244.000000
687 11544 1 0.16500 119244.000000
688 11408 1 0.16500 119244.000000
688 15487 1 0.16500 119244.000000
689 11408 1 0.16500 119244.000000
689 14778 1 0.16500 119244.000000
690 11409 1 0.16500 119244.000000
690 11862 1 0.16500 119244.000000
691 11665 1 0.16500 119244.000000
691 12780 1 0.16500 119244.000000
692 11409 1 0.16500 119244.000000
692 11665 1 0.16500 119244.000000
693 11410 1 0.16500 119244.000000
693 13448 1 0.16500 119244.000000
694 11410 1 0.16500 119244.000000
694 13716 1 0.16500 119244.000000
695 11410 1 0.16500 119244.000000
695 11888 1 0.16500 119244.000000
696 11410 1 0.16500 119244.000000
696 19189 1 0.16500 119244.000000
697 11411 1 0.16500 119244.000000
697 13458 1 0.16500 119244.000000
698 11411 1 0.16500 119244.000000
698 13261 1 0.16500 119244.000000
699 11411 1 0.16500 119244.000000
699 11923 1 0.16500 119244.000000
700 11411 1 0.16500 119244.000000
700 12579 1 0.16500 119244.000000
701 11412 1 0.16500 119244.000000
701 12750 1 0.16500 119244.000000
702 11412 1 0.16500 119244.000000
702 14050 1 0.16500 119244.000000
703 11412 1 0.16500 119244.000000
703 14294 1 0.16500 119244.000000
704 11413 1 0.16500 119244.000000
704 12326 1 0.16500 119244.000000
705 11413 1 0.16500 119244.000000
705 13838 1 0.16500 119244.000000
706 11413 1 0.16500 119244.000000
706 13911 1 0.16500 119244.000000
707 11413 1 0.16500 119244.000000
707 13198 1 0.16500 119244.000000
708 11414 1 0.16500 119244.000000
708 19945 1 0.16500 119244.000000
709 11414 1 0.16500 119244.000000
709 12532 1 0.16500 119244.000000
710 11414 1 0.16500 119244.000000
710 14423 1 0.16500 119244.000000
711 11414 1 0.16500 119244.000000
711 13135 1 0.16500 119244.000000
712 11415 1 0.16500 119244.000000
712 16248 1 0.16500 119244.000000
713 11415 1 0.16500 119244.000000
713 14295 1 0.16500 119244.000000
714 11415 1 0.16500 119244.000000
714 14400 1 0.16500 119244.000000
715 14400 1 0.16500 119244.000000
715 14813 1 0.16500 119244.000000
716 13123 1 0.16500 119244.000000
716 15164 1 0.16500 119244.000000
717 11416 1 0.16500 119244.000000
717 15164 1 0.16500 119244.000000
718 11416 1 0.16500 119244.000000
718 23497 1 0.16500 119244.000000
719 11417 1 0.16500 119244.000000
719 14844 1 0.16500 119244.000000
720 11417 1 0.16500 119244.000000
720 12117 1 0.16500 119244.000000
721 11417 1 0.16500 119244.000000
721 18877 1 0.16500 119244.000000
722 14080 1 0.16500 119244.000000
722 23623 1 0.16500 119244.000000
723 11451 1 0.16500 119244.000000
723 13772 1 0.16500 119244.000000
724 13772 1 0.16500 119244.000000
724 14080 1 0.16500 119244.000000
725 11418 1 0.16500 119244.000000
725 13459 1 0.16500 119244.000000
726 11418 1 0.16500 119244.000000
726 13346 1 0.16500 119244.000000
727 11418 1 0.16500 119244.000000
727 12227 1 0.16500 119244.000000
728 11418 1 0.16500 119244.000000
728 12757 1 0.16500 119244.000000
729 11419 1 0.16500 119244.000000
729 12105 1 0.16500 119244.000000
730 11419 1 0.16500 119244.000000
730 15700 1 0.16500 119244.000000
731 11419 1 0.16500 119244.000000
731 15918 1 0.16500 119244.000000
732 11419 1 0.16500 119244.000000
732 12506 1 0.16500 119244.000000
733 11420 1 0.16500 119244.000000
733 15292 1 0.16500 119244.000000
734 11420 1 0.16500 119244.000000
734 11916 1 0.16500 119244.000000
735 11420 1 0.16500 119244.000000
735 15945 1 0.16500 119244.000000
736 11420 1 0.16500 119244.000000
736 14525 1 0.16500 119244.000000
737 11421 1 0.16500 119244.000000
737 15375 1 0.16500 119244.000000
738 11421 1 0.16500 119244.000000
738 12217 1 0.16500 119244.000000
739 11421 1 0.16500 119244.000000
739 12212 1 0.16500 119244.000000
740 11421 1 0.16500 119244.000000
740 12345 1 0.16500 119244.000000
741 11422 1 0.16500 119244.000000
741 18421 1 0.16500 119244.000000
742 11422 1 0.16500 119244.000000
742 22069 1 0.16500 119244.000000
743 11422 1 0.16500 119244.000000
743 14532 1 0.16500 119244.000000
744 11422 1 0.16500 119244.000000
744 23113 1 0.16500 119244.000000
745 11423 1 0.16500 119244.000000
745 12126 1 0.16500 119244.000000
746 11423 1 0.16500 119244.000000
746 13365 1 0.16500 119244.000000
747 11423 1 0.16500 119244.000000
747 13896 1 0.16500 119244.000000
748 11423 1 0.16500 119244.000000
748 14616 1 0.16500 119244.000000
749 11424 1 0.16500 119244.000000
749 15117 1 0.16500 119244.000000
750 11424 1 0.16500 119244.000000
750 14498 1 0.16500 119244.000000
751 11424 1 0.16500 119244.000000
751 14997 1 0.16500 119244.000000
752 11424 1 0.16500 119244.000000
752 13305 1 0.16500 119244.000000
753 11425 1 0.16500 119244.000000
753 12430 1 0.16500 119244.000000
754 11425 1 0.16500 119244.000000
754 12414 1 0.16500 119244.000000
755 11425 1 0.16500 119244.000000
755 12129 1 0.16500 119244.000000
756 11425 1 0.16500 119244.000000
756 11887 1 0.16500 119244.000000
757 11426 1 0.16500 119244.000000
757 12358 1 0.16500 119244.000000
758 11426 1 0.16500 119244.000000
758 11516 1 0.16500 119244.000000
759 11426 1 0.16500 119244.000000
759 12724 1 0.16500 119244.000000
760 11407 1 0.16500 119244.000000
760 11426 1 0.16500 119244.000000
761 11427 1 0.16500 119244.000000
761 12853 1 0.16500 119244.000000
762 11427 1 0.16500 119244.000000
762 12819 1 0.16500 119244.000000
763 11427 1 0.16500 119244.000000
763 14721 1 0.16500 119244.000000
764 11427 1 0.16500 119244.000000
764 15452 1 0.16500 119244.000000
765 11428 1 0.16500 119244.000000
765 13659 1 0.16500 119244.000000
766 11428 1 0.16500 119244.000000
766 14245 1 0.16500 119244.000000
767 11428 1 0.16500 119244.000000
767 13756 1 0.16500 119244.000000
768 11428 1 0.16500 119244.000000
768 14433 1 0.16500 119244.000000
769 11429 1 0.16500 119244.000000
769 11888 1 0.16500 119244.000000
770 11327 1 0.16500 119244.000000
770 11429 1 0.16500 119244.000000
771 11429 1 0.16500 119244.000000
771 13883 1 0.16500 119244.000000
772 11429 1 0.16500 119244.000000
772 14414 1 0.16500 119244.000000
773 11430 1 0.16500 119244.000000
773 13336 1 0.16500 119244.000000
774 11430 1 0.16500 119244.000000
774 14996 1 0.16500 119244.000000
775 11430 1 0.16500 119244.000000
775 23473 1 0.16500 119244.000000
776 11431 1 0.16500 119244.000000
776 15672 1 0.16500 119244.000000
777 11431 1 0.16500 119244.000000
777 13578 1 0.16500 119244.000000
778 13578 1 0.16500 119244.000000
778 14157 1 0.16500 119244.000000
779 11432 1 0.16500 119244.000000
779 17165 1 0.16500 119244.000000
780 11432 1 0.16500 119244.000000
780 13587 1 0.16500 119244.000000
781 11432 1 0.16500 119244.000000
781 12297 1 0.16500 119244.000000
782 11432 1 0.16500 119244.000000
782 16067 1 0.16500 119244.000000
783 18373 1 0.16500 119244.000000
783 24040 1 0.16500 119244.000000
784 12104 1 0.16500 119244.000000
784 18373 1 0.16500 119244.000000
785 18373 1 0.16500 119244.000000
785 24283 1 0.16500 119244.000000
786 11433 1 0.16500 119244.000000
786 14137 1 0.16500 119244.000000
787 11433 1 0.16500 119244.000000
787 13020 1 0.16500 119244.000000
788 11433 1 0.16500 119244.000000
788 14019 1 0.16500 119244.000000
789 11433 1 0.16500 119244.000000
789 15726 1 0.16500 119244.000000
790 16010 1 0.16500 119244.000000
790 23626 1 0.16500 119244.000000
791 15832 1 0.16500 119244.000000
791 23626 1 0.16500 119244.000000
792 23626 1 0.16500 119244.000000
792 24175 1 0.16500 119244.000000
793 14212 1 0.16500 119244.000000
793 21853 1 0.16500 119244.000000
794 11434 1 0.16500 119244.000000
794 15125 1 0.16500 119244.000000
795 11434 1 0.16500 119244.000000
795 15638 1 0.16500 119244.000000
796 11434 1 0.16500 119244.000000
796 22081 1 0.16500 119244.000000
797 12478 1 0.16500 119244.000000
797 22501 1 0.16500 119244.000000
798 13849 1 0.16500 119244.000000
798 22501 1 0.16500 119244.000000
799 20221 1 0.16500 119244.000000
799 22501 1 0.16500 119244.000000
800 12832 1 0.16500 119244.000000
800 22993 1 0.16500 119244.000000
801 18973 1 0.16500 119244.000000
801 22993 1 0.16500 119244.000000
802 11435 1 0.16500 119244.000000
802 15397 1 0.16500 119244.000000
803 11435 1 0.16500 119244.000000
803 14965 1 0.16500 119244.000000
804 11435 1 0.16500 119244.000000
804 12625 1 0.16500 119244.000000
805 11435 1 0.16500 119244.000000
805 13416 1 0.16500 119244.000000
806 11436 1 0.16500 119244.000000
806 11743 1 0.16500 119244.000000
807 11436 1 0.16500 119244.000000
807 15871 1 0.16500 119244.000000
808 11436 1 0.16500 119244.000000
808 12977 1 0.16500 119244.000000
809 11743 1 0.16500 119244.000000
809 13784 1 0.16500 119244.000000
810 14533 1 0.16500 119244.000000
810 15511 1 0.16500 119244.000000
811 11656 1 0.16500 119244.000000
811 15511 1 0.16500 119244.000000
812 15511 1 0.16500 119244.000000
812 15914 1 0.16500 119244.000000
813 11437 1 0.16500 119244.000000
813 15511 1 0.16500 119244.000000
814 11438 1 0.16500 119244.000000
814 15154 1 0.16500 119244.000000
815 11438 1 0.16500 119244.000000
815 22309 1 0.16500 119244.000000
816 11438 1 0.16500 119244.000000
816 13647 1 0.16500 119244.000000
817 11438 1 0.16500 119244.000000
817 16025 1 0.16500 119244.000000
818 11439 1 0.16500 119244.000000
818 12965 1 0.16500 119244.000000
819 11439 1 0.16500 119244.000000
819 15818 1 0.16500 119244.000000
820 11439 1 0.16500 119244.000000
820 14570 1 0.16500 119244.000000
821 11439 1 0.16500 119244.000000
821 14936 1 0.16500 119244.000000
822 11440 1 0.16500 119244.000000
822 12157 1 0.16500 119244.000000
823 11440 1 0.16500 119244.000000
823 13289 1 0.16500 119244.000000
824 11440 1 0.16500 119244.000000
824 16109 1 0.16500 119244.000000
825 11441 1 0.16500 119244.000000
825 16076 1 0.16500 119244.000000
826 15633 1 0.16500 119244.000000
826 16076 1 0.16500 119244.000000
827 11441 1 0.16500 119244.000000
827 15118 1 0.16500 119244.000000
828 11441 1 0.16500 119244.000000
828 11904 1 0.16500 119244.000000
829 11442 1 0.16500 119244.000000
829 14789 1 0.16500 119244.000000
830 11442 1 0.16500 119244.000000
830 13994 1 0.16500 119244.000000
831 11442 1 0.16500 119244.000000
831 14237 1 0.16500 119244.000000
832 11442 1 0.16500 119244.000000
832 13886 1 0.16500 119244.000000
833 11443 1 0.16500 119244.000000
833 15880 1 0.16500 119244.000000
834 11443 1 0.16500 119244.000000
834 15833 1 0.16500 119244.000000
835 11443 1 0.16500 119244.000000
835 15405 1 0.16500 119244.000000
836 11443 1 0.16500 119244.000000
836 15615 1 0.16500 119244.000000
837 23629 1 0.16500 119244.000000
837 24357 1 0.16500 119244.000000
838 20869 1 0.16500 119244.000000
838 23629 1 0.16500 119244.000000
839 15464 1 0.16500 119244.000000
839 23629 1 0.16500 119244.000000
840 17529 1 0.16500 119244.000000
840 22477 1 0.16500 119244.000000
841 11444 1 0.16500 119244.000000
841 12498 1 0.16500 119244.000000
842 11444 1 0.16500 119244.000000
842 15919 1 0.16500 119244.000000
843 11437 1 0.16500 119244.000000
843 11444 1 0.16500 119244.000000
844 11444 1 0.16500 119244.000000
844 14454 1 0.16500 119244.000000
845 16675 1 0.16500 119244.000000
845 21169 1 0.16500 119244.000000
846 11445 1 0.16500 119244.000000
846 14443 1 0.16500 119244.000000
847 11445 1 0.16500 119244.000000
847 11868 1 0.16500 119244.000000
848 11445 1 0.16500 119244.000000
848 12616 1 0.16500 119244.000000
849 11446 1 0.16500 119244.000000
849 14049 1 0.16500 119244.000000
850 11406 1 0.16500 119244.000000
850 12922 1 0.16500 119244.000000
851 11446 1 0.16500 119244.000000
851 15056 1 0.16500 119244.000000
852 11447 1 0.16500 119244.000000
852 15696 1 0.16500 119244.000000
853 11447 1 0.16500 119244.000000
853 15346 1 0.16500 119244.000000
854 11447 1 0.16500 119244.000000
854 11750 1 0.16500 119244.000000
855 11447 1 0.16500 119244.000000
855 12140 1 0.16500 119244.000000
856 11448 1 0.16500 119244.000000
856 11498 1 0.16500 119244.000000
857 11448 1 0.16500 119244.000000
857 14214 1 0.16500 119244.000000
858 11448 1 0.16500 119244.000000
858 12649 1 0.16500 119244.000000
859 11448 1 0.16500 119244.000000
859 15525 1 0.16500 119244.000000
860 11449 1 0.16500 119244.000000
860 14560 1 0.16500 119244.000000
861 11449 1 0.16500 119244.000000
861 12621 1 0.16500 119244.000000
862 11449 1 0.16500 119244.000000
862 15996 1 0.16500 119244.000000
863 11449 1 0.16500 119244.000000
863 16046 1 0.16500 119244.000000
864 11450 1 0.16500 119244.000000
864 21709 1 0.16500 119244.000000
865 11450 1 0.16500 119244.000000
865 11479 1 0.16500 119244.000000
866 11479 1 0.16500 119244.000000
866 14847 1 0.16500 119244.000000
867 11450 1 0.16500 119244.000000
867 24292 1 0.16500 119244.000000
868 11451 1 0.16500 119244.000000
868 21625 1 0.16500 119244.000000
869 11451 1 0.16500 119244.000000
869 11492 1 0.16500 119244.000000
870 11451 1 0.16500 119244.000000
870 13026 1 0.16500 119244.000000
871 11452 1 0.16500 119244.000000
871 12649 1 0.16500 119244.000000
872 11452 1 0.16500 119244.000000
872 13414 1 0.16500 119244.000000
873 11452 1 0.16500 119244.000000
873 14994 1 0.16500 119244.000000
874 11452 1 0.16500 119244.000000
874 15420 1 0.16500 119244.000000
875 11453 1 0.16500 119244.000000
875 11885 1 0.16500 119244.000000
876 11453 1 0.16500 119244.000000
876 11962 1 0.16500 119244.000000
877 11453 1 0.16500 119244.000000
877 15248 1 0.16500 119244.000000
878 11453 1 0.16500 119244.000000
878 12924 1 0.16500 119244.000000
879 11454 1 0.16500 119244.000000
879 15737 1 0.16500 119244.000000
880 11454 1 0.16500 119244.000000
880 15046 1 0.16500 119244.000000
881 11454 1 0.16500 119244.000000
881 14289 1 0.16500 119244.000000
882 11454 1 0.16500 119244.000000
882 12240 1 0.16500 119244.000000
883 11455 1 0.16500 119244.000000
883 13234 1 0.16500 119244.000000
884 11455 1 0.16500 119244.000000
884 15123 1 0.16500 119244.000000
885 11455 1 0.16500 119244.000000
885 14974 1 0.16500 119244.000000
886 11455 1 0.16500 119244.000000
886 14241 1 0.16500 119244.000000
887 13781 1 0.16500 119244.000000
887 22189 1 0.16500 119244.000000
888 14141 1 0.16500 119244.000000
888 22189 1 0.16500 119244.000000
889 12501 1 0.16500 119244.000000
889 22189 1 0.16500 119244.000000
890 11456 1 0.16500 119244.000000
890 14308 1 0.16500 119244.000000
891 11456 1 0.16500 119244.000000
891 13381 1 0.16500 119244.000000
892 11456 1 0.16500 119244.000000
892 15855 1 0.16500 119244.000000
893 11456 1 0.16500 119244.000000
893 12395 1 0.16500 119244.000000
894 11457 1 0.16500 119244.000000
894 11540 1 0.16500 119244.000000
895 12261 1 0.16500 119244.000000
895 23704 1 0.16500 119244.000000
896 11540 1 0.16500 119244.000000
896 15359 1 0.16500 119244.000000
897 12261 1 0.16500 119244.000000
897 14610 1 0.16500 119244.000000
898 11458 1 0.16500 119244.000000
898 13814 1 0.16500 119244.000000
899 11458 1 0.16500 119244.000000
899 13514 1 0.16500 119244.000000
900 11458 1 0.16500 119244.000000
900 12016 1 0.16500 119244.000000
901 11458 1 0.16500 119244.000000
901 15714 1 0.16500 119244.000000
902 11977 1 0.16500 119244.000000
902 12678 1 0.16500 119244.000000
903 12113 1 0.16500 119244.000000
903 12678 1 0.16500 119244.000000
904 11459 1 0.16500 119244.000000
904 12678 1 0.16500 119244.000000
905 12678 1 0.16500 119244.000000
905 14422 1 0.16500 119244.000000
906 11953 1 0.16500 119244.000000
906 14172 1 0.16500 119244.000000
907 11460 1 0.16500 119244.000000
907 15192 1 0.16500 119244.000000
908 11460 1 0.16500 119244.000000
908 15049 1 0.16500 119244.000000
909 11460 1 0.16500 119244.000000
909 14172 1 0.16500 119244.000000
910 11461 1 0.16500 119244.000000
910 15152 1 0.16500 119244.000000
911 11461 1 0.16500 119244.000000
911 11919 1 0.16500 119244.000000
912 11461 1 0.16500 119244.000000
912 15894 1 0.16500 119244.000000
913 11461 1 0.16500 119244.000000
913 15792 1 0.16500 119244.000000
914 11462 1 0.16500 119244.000000
914 15315 1 0.16500 119244.000000
915 11462 1 0.16500 119244.000000
915 13068 1 0.16500 119244.000000
916 11462 1 0.16500 119244.000000
916 15059 1 0.16500 119244.000000
917 11462 1 0.16500 119244.000000
917 14382 1 0.16500 119244.000000
918 11463 1 0.16500 119244.000000
918 11992 1 0.16500 119244.000000
919 11463 1 0.16500 119244.000000
919 15751 1 0.16500 119244.000000
920 11463 1 0.16500 119244.000000
920 16083 1 0.16500 119244.000000
921 11464 1 0.16500 119244.000000
921 15043 1 0.16500 119244.000000
922 11464 1 0.16500 119244.000000
922 13730 1 0.16500 119244.000000
923 11464 1 0.16500 119244.000000
923 12770 1 0.16500 119244.000000
924 11464 1 0.16500 119244.000000
924 11710 1 0.16500 119244.000000
925 11465 1 0.16500 119244.000000
925 11474 1 0.16500 119244.000000
926 11465 1 0.16500 119244.000000
926 13615 1 0.16500 119244.000000
927 11465 1 0.16500 119244.000000
927 11766 1 0.16500 119244.000000
928 11465 1 0.16500 119244.000000
928 15954 1 0.16500 119244.000000
929 11466 1 0.16500 119244.000000
929 15450 1 0.16500 119244.000000
930 11466 1 0.16500 119244.000000
930 14809 1 0.16500 119244.000000
931 11466 1 0.16500 119244.000000
931 13480 1 0.16500 119244.000000
932 11466 1 0.16500 119244.000000
932 15189 1 0.16500 119244.000000
933 11467 1 0.16500 119244.000000
933 13514 1 0.16500 119244.000000
934 11467 1 0.16500 119244.000000
934 16021 1 0.16500 119244.000000
935 11467 1 0.16500 119244.000000
935 13113 1 0.16500 119244.000000
936 11467 1 0.16500 119244.000000
936 14527 1 0.16500 119244.000000
937 11468 1 0.16500 119244.000000
937 24181 1 0.16500 119244.000000
938 11468 1 0.16500 119244.000000
938 15816 1 0.16500 119244.000000
939 11468 1 0.16500 119244.000000
939 12909 1 0.16500 119244.000000
940 11468 1 0.16500 119244.000000
940 23815 1 0.16500 119244.000000
941 11469 1 0.16500 119244.000000
941 11524 1 0.16500 119244.000000
942 11469 1 0.16500 119244.000000
942 15524 1 0.16500 119244.000000
943 11469 1 0.16500 119244.000000
943 20029 1 0.16500 119244.000000
944 11469 1 0.16500 119244.000000
944 14363 1 0.16500 119244.000000
945 11470 1 0.16500 119244.000000
945 15203 1 0.16500 119244.000000
946 11470 1 0.16500 119244.000000
946 11631 1 0.16500 119244.000000
947 11470 1 0.16500 119244.000000
947 16119 1 0.16500 119244.000000
948 11470 1 0.16500 119244.000000
948 16270 1 0.16500 119244.000000
949 11556 1 0.16500 119244.000000
949 14515 1 0.16500 119244.000000
950 11471 1 0.16500 119244.000000
950 12163 1 0.16500 119244.000000
951 11471 1 0.16500 119244.000000
951 14515 1 0.16500 119244.000000
952 11471 1 0.16500 119244.000000
952 13425 1 0.16500 119244.000000
953 11472 1 0.16500 119244.000000
953 11488 1 0.16500 119244.000000
954 11472 1 0.16500 119244.000000
954 13279 1 0.16500 119244.000000
955 11472 1 0.16500 119244.000000
955 12489 1 0.16500 119244.000000
956 11472 1 0.16500 119244.000000
956 15059 1 0.16500 119244.000000
957 11473 1 0.16500 119244.000000
957 11536 1 0.16500 119244.000000
958 11473 1 0.16500 119244.000000
958 12183 1 0.16500 119244.000000
959 11536 1 0.16500 119244.000000
959 13216 1 0.16500 119244.000000
960 12183 1 0.16500 119244.000000
960 12514 1 0.16500 119244.000000
961 11474 1 0.16500 119244.000000
961 15233 1 0.16500 119244.000000
962 11474 1 0.16500 119244.000000
962 14358 1 0.16500 119244.000000
963 11474 1 0.16500 119244.000000
963 14256 1 0.16500 119244.000000
964 15817 1 0.16500 119244.000000
964 17669 1 0.16500 119244.000000
965 13042 1 0.16500 119244.000000
965 17669 1 0.16500 119244.000000
966 11475 1 0.16500 119244.000000
966 12649 1 0.16500 119244.000000
967 11475 1 0.16500 119244.000000
967 13918 1 0.16500 119244.000000
968 11475 1 0.16500 119244.000000
968 14386 1 0.16500 119244.000000
969 11475 1 0.16500 119244.000000
969 15991 1 0.16500 119244.000000
970 11476 1 0.16500 119244.000000
970 15503 1 0.16500 119244.000000
971 11476 1 0.16500 119244.000000
971 11742 1 0.16500 119244.000000
972 11476 1 0.16500 119244.000000
972 12065 1 0.16500 119244.000000
973 11476 1 0.16500 119244.000000
973 11661 1 0.16500 119244.000000
974 11477 1 0.16500 119244.000000
974 14421 1 0.16500 119244.000000
975 11477 1 0.16500 119244.000000
975 23974 1 0.16500 119244.000000
976 11477 1 0.16500 119244.000000
976 15607 1 0.16500 119244.000000
977 11477 1 0.16500 119244.000000
977 14411 1 0.16500 119244.000000
978 23632 1 0.16500 119244.000000
978 24280 1 0.16500 119244.000000
979 14999 1 0.16500 119244.000000
979 23632 1 0.16500 119244.000000
980 23632 1 0.16500 119244.000000
980 23845 1 0.16500 119244.000000
981 11478 1 0.16500 119244.000000
981 14626 1 0.16500 119244.000000
982 11905 1 0.16500 119244.000000
982 14626 1 0.16500 119244.000000
983 11478 1 0.16500 119244.000000
983 12053 1 0.16500 119244.000000
984 11478 1 0.16500 119244.000000
984 11589 1 0.16500 119244.000000
985 11761 1 0.16500 119244.000000
985 24472 1 0.16500 119244.000000
986 11450 1 0.16500 119244.000000
986 16465 1 0.16500 119244.000000
987 11479 1 0.16500 119244.000000
987 12595 1 0.16500 119244.000000
988 11479 1 0.16500 119244.000000
988 15388 1 0.16500 119244.000000
989 11480 1 0.16500 119244.000000
989 16071 1 0.16500 119244.000000
990 11480 1 0.16500 119244.000000
990 16257 1 0.16500 119244.000000
991 11480 1 0.16500 119244.000000
991 18349 1 0.16500 119244.000000
992 11480 1 0.16500 119244.000000
992 11516 1 0.16500 119244.000000
993 11481 1 0.16500 119244.000000
993 13125 1 0.16500 119244.000000
994 11481 1 0.16500 119244.000000
994 16090 1 0.16500 119244.000000
995 11481 1 0.16500 119244.000000
995 11642 1 0.16500 119244.000000
996 11482 1 0.16500 119244.000000
996 16199 1 0.16500 119244.000000
997 11482 1 0.16500 119244.000000
997 16053 1 0.16500 119244.000000
998 11482 1 0.16500 119244.000000
998 15734 1 0.16500 119244.000000
999 11482 1 0.16500 119244.000000
999 12362 1 0.16500 119244.000000
1000 11483 1 0.16500 119244.000000
1000 12994 1 0.16500 119244.000000
1001 11483 1 0.16500 119244.000000
1001 16140 1 0.16500 119244.000000
1002 11483 1 0.16500 119244.000000
1002 15828 1 0.16500 119244.000000
1003 11483 1 0.16500 119244.000000
1003 15061 1 0.16500 119244.000000
1004 11484 1 0.16500 119244.000000
1004 12168 1 0.16500 119244.000000
1005 11484 1 0.16500 119244.000000
1005 11885 1 0.16500 119244.000000
1006 11484 1 0.16500 119244.000000
1006 14611 1 0.16500 119244.000000
1007 11484 1 0.16500 119244.000000
1007 13972 1 0.16500 119244.000000
1008 11485 1 0.16500 119244.000000
1008 11515 1 0.16500 119244.000000
1009 11485 1 0.16500 119244.000000
1009 15007 1 0.16500 119244.000000
1010 14683 1 0.16500 119244.000000
1010 15017 1 0.16500 119244.000000
1011 11485 1 0.16500 119244.000000
1011 14683 1 0.16500 119244.000000
1012 11486 1 0.16500 119244.000000
1012 14358 1 0.16500 119244.000000
1013 11486 1 0.16500 119244.000000
1013 15366 1 0.16500 119244.000000
1014 11486 1 0.16500 119244.000000
1014 15954 1 0.16500 119244.000000
1015 11486 1 0.16500 119244.000000
1015 12384 1 0.16500 119244.000000
1016 11487 1 0.16500 119244.000000
1016 11752 1 0.16500 119244.000000
1017 11487 1 0.16500 119244.000000
1017 15612 1 0.16500 119244.000000
1018 11487 1 0.16500 119244.000000
1018 13777 1 0.16500 119244.000000
1019 11487 1 0.16500 119244.000000
1019 12252 1 0.16500 119244.000000
1020 11488 1 0.16500 119244.000000
1020 21925 1 0.16500 119244.000000
1021 11488 1 0.16500 119244.000000
1021 24139 1 0.16500 119244.000000
1022 11488 1 0.16500 119244.000000
1022 23686 1 0.16500 119244.000000
1023 11489 1 0.16500 119244.000000
1023 15419 1 0.16500 119244.000000
1024 11489 1 0.16500 119244.000000
1024 15799 1 0.16500 119244.000000
1025 11489 1 0.16500 119244.000000
1025 12972 1 0.16500 119244.000000
1026 11489 1 0.16500 119244.000000
1026 15950 1 0.16500 119244.000000
1027 11934 1 0.16500 119244.000000
1027 19081 1 0.16500 119244.000000
1028 12030 1 0.16500 119244.000000
1028 19081 1 0.16500 119244.000000
1029 15193 1 0.16500 119244.000000
1029 19081 1 0.16500 119244.000000
1030 11459 1 0.16500 119244.000000
1030 11490 1 0.16500 119244.000000
1031 11490 1 0.16500 119244.000000
1031 15517 1 0.16500 119244.000000
1032 11490 1 0.16500 119244.000000
1032 14406 1 0.16500 119244.000000
1033 11490 1 0.16500 119244.000000
1033 15065 1 0.16500 119244.000000
1034 23149 1 0.16500 119244.000000
1034 23635 1 0.16500 119244.000000
1035 13908 1 0.16500 119244.000000
1035 23635 1 0.16500 119244.000000
1036 14971 1 0.16500 119244.000000
1036 23656 1 0.16500 119244.000000
1037 14971 1 0.16500 119244.000000
1037 18673 1 0.16500 119244.000000
1038 12882 1 0.16500 119244.000000
1038 14971 1 0.16500 119244.000000
1039 11491 1 0.16500 119244.000000
1039 14971 1 0.16500 119244.000000
1040 11492 1 0.16500 119244.000000
1040 21577 1 0.16500 119244.000000
1041 11492 1 0.16500 119244.000000
1041 14897 1 0.16500 119244.000000
1042 11492 1 0.16500 119244.000000
1042 11493 1 0.16500 119244.000000
1043 11493 1 0.16500 119244.000000
1043 14458 1 0.16500 119244.000000
1044 11493 1 0.16500 119244.000000
1044 23221 1 0.16500 119244.000000
1045 11494 1 0.16500 119244.000000
1045 14988 1 0.16500 119244.000000
1046 11494 1 0.16500 119244.000000
1046 15500 1 0.16500 119244.000000
1047 11494 1 0.16500 119244.000000
1047 11561 1 0.16500 119244.000000
1048 11494 1 0.16500 119244.000000
1048 15056 1 0.16500 119244.000000
1049 11495 1 0.16500 119244.000000
1049 14843 1 0.16500 119244.000000
1050 11495 1 0.16500 119244.000000
1050 15377 1 0.16500 119244.000000
1051 11495 1 0.16500 119244.000000
1051 14377 1 0.16500 119244.000000
1052 11496 1 0.16500 119244.000000
1052 11627 1 0.16500 119244.000000
1053 11496 1 0.16500 119244.000000
1053 15287 1 0.16500 119244.000000
1054 11496 1 0.16500 119244.000000
1054 15001 1 0.16500 119244.000000
1055 11496 1 0.16500 119244.000000
1055 12385 1 0.16500 119244.000000
1056 11497 1 0.16500 119244.000000
1056 11675 1 0.16500 119244.000000
1057 11497 1 0.16500 119244.000000
1057 15620 1 0.16500 119244.000000
1058 11497 1 0.16500 119244.000000
1058 14135 1 0.16500 119244.000000
1059 11497 1 0.16500 119244.000000
1059 15042 1 0.16500 119244.000000
1060 11498 1 0.16500 119244.000000
1060 15426 1 0.16500 119244.000000
1061 11498 1 0.16500 119244.000000
1061 15169 1 0.16500 119244.000000
1062 12693 1 0.16500 119244.000000
1062 15426 1 0.16500 119244.000000
1063 13023 1 0.16500 119244.000000
1063 13232 1 0.16500 119244.000000
1064 11499 1 0.16500 119244.000000
1064 13023 1 0.16500 119244.000000
1065 13023 1 0.16500 119244.000000
1065 14549 1 0.16500 119244.000000
1066 11500 1 0.16500 119244.000000
1066 13496 1 0.16500 119244.000000
1067 11500 1 0.16500 119244.000000
1067 14323 1 0.16500 119244.000000
1068 11500 1 0.16500 119244.000000
1068 14349 1 0.16500 119244.000000
1069 11500 1 0.16500 119244.000000
1069 12184 1 0.16500 119244.000000
1070 11501 1 0.16500 119244.000000
1070 15592 1 0.16500 119244.000000
1071 11501 1 0.16500 119244.000000
1071 16160 1 0.16500 119244.000000
1072 11501 1 0.16500 119244.000000
1072 14739 1 0.16500 119244.000000
1073 11502 1 0.16500 119244.000000
1073 23656 1 0.16500 119244.000000
1074 11502 1 0.16500 119244.000000
1074 16266 1 0.16500 119244.000000
1075 11502 1 0.16500 119244.000000
1075 22909 1 0.16500 119244.000000
1076 11502 1 0.16500 119244.000000
1076 24043 1 0.16500 119244.000000
1077 11503 1 0.16500 119244.000000
1077 13352 1 0.16500 119244.000000
1078 11503 1 0.16500 119244.000000
1078 13630 1 0.16500 119244.000000
1079 11503 1 0.16500 119244.000000
1079 16125 1 0.16500 119244.000000
1080 11503 1 0.16500 119244.000000
1080 14931 1 0.16500 119244.000000
1081 11504 1 0.16500 119244.000000
1081 15453 1 0.16500 119244.000000
1082 11504 1 0.16500 119244.000000
1082 12454 1 0.16500 119244.000000
1083 11504 1 0.16500 119244.000000
1083 20713 1 0.16500 119244.000000
1084 11504 1 0.16500 119244.000000
1084 14226 1 0.16500 119244.000000
1085 11505 1 0.16500 119244.000000
1085 13182 1 0.16500 119244.000000
1086 11505 1 0.16500 119244.000000
1086 12289 1 0.16500 119244.000000
1087 11505 1 0.16500 119244.000000
1087 13826 1 0.16500 119244.000000
1088 11505 1 0.16500 119244.000000
1088 12860 1 0.16500 119244.000000
1089 11506 1 0.16500 119244.000000
1089 13864 1 0.16500 119244.000000
1090 11506 1 0.16500 119244.000000
1090 14479 1 0.16500 119244.000000
1091 11506 1 0.16500 119244.000000
1091 12915 1 0.16500 119244.000000
1092 11506 1 0.16500 119244.000000
1092 15875 1 0.16500 119244.000000
1093 11507 1 0.16500 119244.000000
1093 12891 1 0.16500 119244.000000
1094 11507 1 0.16500 119244.000000
1094 13976 1 0.16500 119244.000000
1095 11507 1 0.16500 119244.000000
1095 15932 1 0.16500 119244.000000
1096 11508 1 0.16500 119244.000000
1096 13995 1 0.16500 119244.000000
1097 11508 1 0.16500 119244.000000
1097 13007 1 0.16500 119244.000000
1098 11508 1 0.16500 119244.000000
1098 14051 1 0.16500 119244.000000
1099 11508 1 0.16500 119244.000000
1099 12528 1 0.16500 119244.000000
1100 11509 1 0.16500 119244.000000
1100 12871 1 0.16500 119244.000000
1101 11509 1 0.16500 119244.000000
1101 12907 1 0.16500 119244.000000
1102 11509 1 0.16500 119244.000000
1102 14842 1 0.16500 119244.000000
1103 11509 1 0.16500 119244.000000
1103 16124 1 0.16500 119244.000000
1104 11510 1 0.16500 119244.000000
1104 15645 1 0.16500 119244.000000
1105 11510 1 0.16500 119244.000000
1105 14614 1 0.16500 119244.000000
1106 11510 1 0.16500 119244.000000
1106 16232 1 0.16500 119244.000000
1107 11511 1 0.16500 119244.000000
1107 11992 1 0.16500 119244.000000
1108 11992 1 0.16500 119244.000000
1108 16061 1 0.16500 119244.000000
1109 11992 1 0.16500 119244.000000
1109 13070 1 0.16500 119244.000000
1110 21829 1 0.16500 119244.000000
1110 23923 1 0.16500 119244.000000
1111 13199 1 0.16500 119244.000000
1111 21829 1 0.16500 119244.000000
1112 21121 1 0.16500 119244.000000
1112 21829 1 0.16500 119244.000000
1113 11512 1 0.16500 119244.000000
1113 16033 1 0.16500 119244.000000
1114 14235 1 0.16500 119244.000000
1114 16033 1 0.16500 119244.000000
1115 11512 1 0.16500 119244.000000
1115 15047 1 0.16500 119244.000000
1116 11512 1 0.16500 119244.000000
1116 11624 1 0.16500 119244.000000
1117 11513 1 0.16500 119244.000000
1117 13527 1 0.16500 119244.000000
1118 11513 1 0.16500 119244.000000
1118 18949 1 0.16500 119244.000000
1119 11513 1 0.16500 119244.000000
1119 15304 1 0.16500 119244.000000
1120 11513 1 0.16500 119244.000000
1120 19981 1 0.16500 119244.000000
1121 11514 1 0.16500 119244.000000
1121 12916 1 0.16500 119244.000000
1122 11514 1 0.16500 119244.000000
1122 15398 1 0.16500 119244.000000
1123 11514 1 0.16500 119244.000000
1123 17375 1 0.16500 119244.000000
1124 11514 1 0.16500 119244.000000
1124 14922 1 0.16500 119244.000000
1125 11515 1 0.16500 119244.000000
1125 15661 1 0.16500 119244.000000
1126 11515 1 0.16500 119244.000000
1126 15206 1 0.16500 119244.000000
1127 11515 1 0.16500 119244.000000
1127 15917 1 0.16500 119244.000000
1128 11516 1 0.16500 119244.000000
1128 11811 1 0.16500 119244.000000
1129 11516 1 0.16500 119244.000000
1129 12666 1 0.16500 119244.000000
1130 11517 1 0.16500 119244.000000
1130 15197 1 0.16500 119244.000000
1131 11377 1 0.16500 119244.000000
1131 14818 1 0.16500 119244.000000
1132 11517 1 0.16500 119244.000000
1132 14863 1 0.16500 119244.000000
1133 11518 1 0.16500 119244.000000
1133 13667 1 0.16500 119244.000000
1134 11518 1 0.16500 119244.000000
1134 12181 1 0.16500 119244.000000
1135 11518 1 0.16500 119244.000000
1135 13713 1 0.16500 119244.000000
1136 11518 1 0.16500 119244.000000
1136 13627 1 0.16500 119244.000000
1137 15510 1 0.16500 119244.000000
1137 23971 1 0.16500 119244.000000
1138 11519 1 0.16500 119244.000000
1138 15068 1 0.16500 119244.000000
1139 11519 1 0.16500 119244.000000
1139 12553 1 0.16500 119244.000000
1140 11519 1 0.16500 119244.000000
1140 15128 1 0.16500 119244.000000
1141 11519 1 0.16500 119244.000000
1141 11679 1 0.16500 119244.000000
1142 11520 1 0.16500 119244.000000
1142 11944 1 0.16500 119244.000000
1143 11520 1 0.16500 119244.000000
1143 11534 1 0.16500 119244.000000
1144 11520 1 0.16500 119244.000000
1144 13006 1 0.16500 119244.000000
1145 11520 1 0.16500 119244.000000
1145 13247 1 0.16500 119244.000000
1146 11521 1 0.16500 119244.000000
1146 16075 1 0.16500 119244.000000
1147 11521 1 0.16500 119244.000000
1147 12650 1 0.16500 119244.000000
1148 11521 1 0.16500 119244.000000
1148 23854 1 0.16500 119244.000000
1149 11521 1 0.16500 119244.000000
1149 15574 1 0.16500 119244.000000
1150 11522 1 0.16500 119244.000000
1150 13326 1 0.16500 119244.000000
1151 13326 1 0.16500 119244.000000
1151 13780 1 0.16500 119244.000000
1152 11522 1 0.16500 119244.000000
1152 12181 1 0.16500 119244.000000
1153 11523 1 0.16500 119244.000000
1153 16183 1 0.16500 119244.000000
1154 11523 1 0.16500 119244.000000
1154 18529 1 0.16500 119244.000000
1155 11523 1 0.16500 119244.000000
1155 14472 1 0.16500 119244.000000
1156 11523 1 0.16500 119244.000000
1156 14698 1 0.16500 119244.000000
1157 11524 1 0.16500 119244.000000
1157 15786 1 0.16500 119244.000000
1158 11524 1 0.16500 119244.000000
1158 11799 1 0.16500 119244.000000
1159 11524 1 0.16500 119244.000000
1159 14583 1 0.16500 119244.000000
1160 12849 1 0.16500 119244.000000
1160 15339 1 0.16500 119244.000000
1161 11525 1 0.16500 119244.000000
1161 11887 1 0.16500 119244.000000
1162 11525 1 0.16500 119244.000000
1162 12849 1 0.16500 119244.000000
1163 12849 1 0.16500 119244.000000
1163 13159 1 0.16500 119244.000000
1164 11526 1 0.16500 119244.000000
1164 14022 1 0.16500 119244.000000
1165 11526 1 0.16500 119244.000000
1165 15978 1 0.16500 119244.000000
1166 11526 1 0.16500 119244.000000
1166 13354 1 0.16500 119244.000000
1167 11526 1 0.16500 119244.000000
1167 13708 1 0.16500 119244.000000
1168 11527 1 0.16500 119244.000000
1168 16081 1 0.16500 119244.000000
1169 11527 1 0.16500 119244.000000
1169 14762 1 0.16500 119244.000000
1170 11527 1 0.16500 119244.000000
1170 21361 1 0.16500 119244.000000
1171 11527 1 0.16500 119244.000000
1171 23917 1 0.16500 119244.000000
1172 11528 1 0.16500 119244.000000
1172 13669 1 0.16500 119244.000000
1173 11528 1 0.16500 119244.000000
1173 14632 1 0.16500 119244.000000
1174 11528 1 0.16500 119244.000000
1174 12624 1 0.16500 119244.000000
1175 11528 1 0.16500 119244.000000
1175 13864 1 0.16500 119244.000000
1176 11529 1 0.16500 119244.000000
1176 15584 1 0.16500 119244.000000
1177 11529 1 0.16500 119244.000000
1177 14085 1 0.16500 119244.000000
1178 11529 1 0.16500 119244.000000
1178 15599 1 0.16500 119244.000000
1179 15711 1 0.16500 119244.000000
1179 17627 1 0.16500 119244.000000
1180 16997 1 0.16500 119244.000000
1180 17627 1 0.16500 119244.000000
1181 11530 1 0.16500 119244.000000
1181 14910 1 0.16500 119244.000000
1182 11530 1 0.16500 119244.000000
1182 14086 1 0.16500 119244.000000
1183 11530 1 0.16500 119244.000000
1183 15705 1 0.16500 119244.000000
1184 11530 1 0.16500 119244.000000
1184 15126 1 0.16500 119244.000000
1185 11531 1 0.16500 119244.000000
1185 13548 1 0.16500 119244.000000
1186 11531 1 0.16500 119244.000000
1186 11932 1 0.16500 119244.000000
1187 11531 1 0.16500 119244.000000
1187 11635 1 0.16500 119244.000000
1188 11531 1 0.16500 119244.000000
1188 16055 1 0.16500 119244.000000
1189 11532 1 0.16500 119244.000000
1189 12824 1 0.16500 119244.000000
1190 11532 1 0.16500 119244.000000
1190 15969 1 0.16500 119244.000000
1191 11532 1 0.16500 119244.000000
1191 14293 1 0.16500 119244.000000
1192 12824 1 0.16500 119244.000000
1192 14112 1 0.16500 119244.000000
1193 11533 1 0.16500 119244.000000
1193 13730 1 0.16500 119244.000000
1194 11533 1 0.16500 119244.000000
1194 13566 1 0.16500 119244.000000
1195 11533 1 0.16500 119244.000000
1195 11759 1 0.16500 119244.000000
1196 11533 1 0.16500 119244.000000
1196 12630 1 0.16500 119244.000000
1197 11301 1 0.16500 119244.000000
1197 11534 1 0.16500 119244.000000
1198 11534 1 0.16500 119244.000000
1198 15772 1 0.16500 119244.000000
1199 13327 1 0.16500 119244.000000
1199 14535 1 0.16500 119244.000000
1200 11535 1 0.16500 119244.000000
1200 14045 1 0.16500 119244.000000
1201 11535 1 0.16500 119244.000000
1201 13327 1 0.16500 119244.000000
1202 11535 1 0.16500 119244.000000
1202 14563 1 0.16500 119244.000000
1203 11473 1 0.16500 119244.000000
1203 12371 1 0.16500 119244.000000
1204 11536 1 0.16500 119244.000000
1204 12601 1 0.16500 119244.000000
1205 11536 1 0.16500 119244.000000
1205 12585 1 0.16500 119244.000000
1206 11945 1 0.16500 119244.000000
1206 22177 1 0.16500 119244.000000
1207 18047 1 0.16500 119244.000000
1207 22177 1 0.16500 119244.000000
1208 11537 1 0.16500 119244.000000
1208 14728 1 0.16500 119244.000000
1209 11537 1 0.16500 119244.000000
1209 13587 1 0.16500 119244.000000
1210 11537 1 0.16500 119244.000000
1210 13280 1 0.16500 119244.000000
1211 11538 1 0.16500 119244.000000
1211 13712 1 0.16500 119244.000000
1212 11315 1 0.16500 119244.000000
1212 11538 1 0.16500 119244.000000
1213 11538 1 0.16500 119244.000000
1213 15028 1 0.16500 119244.000000
1214 11538 1 0.16500 119244.000000
1214 12290 1 0.16500 119244.000000
1215 11539 1 0.16500 119244.000000
1215 15941 1 0.16500 119244.000000
1216 11539 1 0.16500 119244.000000
1216 21913 1 0.16500 119244.000000
1217 11539 1 0.16500 119244.000000
1217 14517 1 0.16500 119244.000000
1218 11539 1 0.16500 119244.000000
1218 11585 1 0.16500 119244.000000
1219 11540 1 0.16500 119244.000000
1219 14194 1 0.16500 119244.000000
1220 11457 1 0.16500 119244.000000
1220 15331 1 0.16500 119244.000000
1221 11540 1 0.16500 119244.000000
1221 15659 1 0.16500 119244.000000
1222 23638 1 0.16500 119244.000000
1222 24205 1 0.16500 119244.000000
1223 12314 1 0.16500 119244.000000
1223 23638 1 0.16500 119244.000000
1224 23638 1 0.16500 119244.000000
1224 24265 1 0.16500 119244.000000
1225 11541 1 0.16500 119244.000000
1225 11562 1 0.16500 119244.000000
1226 11541 1 0.16500 119244.000000
1226 14863 1 0.16500 119244.000000
1227 11541 1 0.16500 119244.000000
1227 15953 1 0.16500 119244.000000
1228 11541 1 0.16500 119244.000000
1228 12843 1 0.16500 119244.000000
1229 11542 1 0.16500 119244.000000
1229 13599 1 0.16500 119244.000000
1230 11542 1 0.16500 119244.000000
1230 15923 1 0.16500 119244.000000
1231 11542 1 0.16500 119244.000000
1231 20353 1 0.16500 119244.000000
1232 11542 1 0.16500 119244.000000
1232 12917 1 0.16500 119244.000000
1233 11543 1 0.16500 119244.000000
1233 14568 1 0.16500 119244.000000
1234 11543 1 0.16500 119244.000000
1234 15015 1 0.16500 119244.000000
1235 11543 1 0.16500 119244.000000
1235 12996 1 0.16500 119244.000000
1236 11543 1 0.16500 119244.000000
1236 14470 1 0.16500 119244.000000
1237 19261 1 0.16500 119244.000000
1237 24037 1 0.16500 119244.000000
1238 15345 1 0.16500 119244.000000
1238 19261 1 0.16500 119244.000000
1239 13401 1 0.16500 119244.000000
1239 19261 1 0.16500 119244.000000
1240 11544 1 0.16500 119244.000000
1240 24019 1 0.16500 119244.000000
1241 11544 1 0.16500 119244.000000
1241 13275 1 0.16500 119244.000000
1242 11544 1 0.16500 119244.000000
1242 12613 1 0.16500 119244.000000
1243 11545 1 0.16500 119244.000000
1243 14816 1 0.16500 119244.000000
1244 11545 1 0.16500 119244.000000
1244 15376 1 0.16500 119244.000000
1245 11545 1 0.16500 119244.000000
1245 15726 1 0.16500 119244.000000
1246 11546 1 0.16500 119244.000000
1246 13653 1 0.16500 119244.000000
1247 11546 1 0.16500 119244.000000
1247 11697 1 0.16500 119244.000000
1248 11546 1 0.16500 119244.000000
1248 14963 1 0.16500 119244.000000
1249 11546 1 0.16500 119244.000000
1249 13856 1 0.16500 119244.000000
1250 11547 1 0.16500 119244.000000
1250 15324 1 0.16500 119244.000000
1251 11547 1 0.16500 119244.000000
1251 12702 1 0.16500 119244.000000
1252 11547 1 0.16500 119244.000000
1252 12284 1 0.16500 119244.000000
1253 11547 1 0.16500 119244.000000
1253 14021 1 0.16500 119244.000000
1254 11548 1 0.16500 119244.000000
1254 13977 1 0.16500 119244.000000
1255 11548 1 0.16500 119244.000000
1255 13787 1 0.16500 119244.000000
1256 11548 1 0.16500 119244.000000
1256 11596 1 0.16500 119244.000000
1257 11548 1 0.16500 119244.000000
1257 15888 1 0.16500 119244.000000
1258 12605 1 0.16500 119244.000000
1258 23662 1 0.16500 119244.000000
1259 11549 1 0.16500 119244.000000
1259 24190 1 0.16500 119244.000000
1260 11549 1 0.16500 119244.000000
1260 24256 1 0.16500 119244.000000
1261 11549 1 0.16500 119244.000000
1261 12987 1 0.16500 119244.000000
1262 11549 1 0.16500 119244.000000
1262 16161 1 0.16500 119244.000000
1263 11550 1 0.16500 119244.000000
1263 16213 1 0.16500 119244.000000
1264 11550 1 0.16500 119244.000000
1264 15246 1 0.16500 119244.000000
1265 11550 1 0.16500 119244.000000
1265 12176 1 0.16500 119244.000000
1266 11551 1 0.16500 119244.000000
1266 13396 1 0.16500 119244.000000
1267 11551 1 0.16500 119244.000000
1267 15087 1 0.16500 119244.000000
1268 11551 1 0.16500 119244.000000
1268 13510 1 0.16500 119244.000000
1269 11551 1 0.16500 119244.000000
1269 20221 1 0.16500 119244.000000
1270 11552 1 0.16500 119244.000000
1270 14277 1 0.16500 119244.000000
1271 11552 1 0.16500 119244.000000
1271 16269 1 0.16500 119244.000000
1272 11552 1 0.16500 119244.000000
1272 13687 1 0.16500 119244.000000
1273 11552 1 0.16500 119244.000000
1273 12255 1 0.16500 119244.000000
1274 11553 1 0.16500 119244.000000
1274 15996 1 0.16500 119244.000000
1275 11553 1 0.16500 119244.000000
1275 12935 1 0.16500 119244.000000
1276 11553 1 0.16500 119244.000000
1276 13524 1 0.16500 119244.000000
1277 11553 1 0.16500 119244.000000
1277 12933 1 0.16500 119244.000000
1278 11554 1 0.16500 119244.000000
1278 12284 1 0.16500 119244.000000
1279 11554 1 0.16500 119244.000000
1279 12005 1 0.16500 119244.000000
1280 11554 1 0.16500 119244.000000
1280 13934 1 0.16500 119244.000000
1281 11554 1 0.16500 119244.000000
1281 15327 1 0.16500 119244.000000
1282 11555 1 0.16500 119244.000000
1282 14545 1 0.16500 119244.000000
1283 11555 1 0.16500 119244.000000
1283 14671 1 0.16500 119244.000000
1284 12086 1 0.16500 119244.000000
1284 16110 1 0.16500 119244.000000
1285 11555 1 0.16500 119244.000000
1285 16110 1 0.16500 119244.000000
1286 14627 1 0.16500 119244.000000
1286 20161 1 0.16500 119244.000000
1287 14627 1 0.16500 119244.000000
1287 16147 1 0.16500 119244.000000
1288 18685 1 0.16500 119244.000000
1288 20161 1 0.16500 119244.000000
1289 11556 1 0.16500 119244.000000
1289 13117 1 0.16500 119244.000000
1290 11556 1 0.16500 119244.000000
1290 14575 1 0.16500 119244.000000
1291 11556 1 0.16500 119244.000000
1291 21733 1 0.16500 119244.000000
1292 11557 1 0.16500 119244.000000
1292 15350 1 0.16500 119244.000000
1293 11557 1 0.16500 119244.000000
1293 15725 1 0.16500 119244.000000
1294 11557 1 0.16500 119244.000000
1294 15579 1 0.16500 119244.000000
1295 11557 1 0.16500 119244.000000
1295 16115 1 0.16500 119244.000000
1296 11558 1 0.16500 119244.000000
1296 15247 1 0.16500 119244.000000
1297 11558 1 0.16500 119244.000000
1297 14791 1 0.16500 119244.000000
1298 11558 1 0.16500 119244.000000
1298 11874 1 0.16500 119244.000000
1299 11559 1 0.16500 119244.000000
1299 11667 1 0.16500 119244.000000
1300 11559 1 0.16500 119244.000000
1300 15691 1 0.16500 119244.000000
1301 11559 1 0.16500 119244.000000
1301 12054 1 0.16500 119244.000000
1302 11559 1 0.16500 119244.000000
1302 12512 1 0.16500 119244.000000
1303 11560 1 0.16500 119244.000000
1303 14896 1 0.16500 119244.000000
1304 14045 1 0.16500 119244.000000
1304 15747 1 0.16500 119244.000000
1305 11560 1 0.16500 119244.000000
1305 14045 1 0.16500 119244.000000
1306 11560 1 0.16500 119244.000000
1306 15648 1 0.16500 119244.000000
1307 11561 1 0.16500 119244.000000
1307 14402 1 0.16500 119244.000000
1308 11561 1 0.16500 119244.000000
1308 11615 1 0.16500 119244.000000
1309 11561 1 0.16500 119244.000000
1309 12615 1 0.16500 119244.000000
1310 11562 1 0.16500 119244.000000
1310 15790 1 0.16500 119244.000000
1311 11562 1 0.16500 119244.000000
1311 14165 1 0.16500 119244.000000
1312 11491 1 0.16500 119244.000000
1312 11562 1 0.16500 119244.000000
1313 11563 1 0.16500 119244.000000
1313 11875 1 0.16500 119244.000000
1314 11563 1 0.16500 119244.000000
1314 16033 1 0.16500 119244.000000
1315 11563 1 0.16500 119244.000000
1315 13144 1 0.16500 119244.000000
1316 11563 1 0.16500 119244.000000
1316 12000 1 0.16500 119244.000000
1317 11564 1 0.16500 119244.000000
1317 12633 1 0.16500 119244.000000
1318 11564 1 0.16500 119244.000000
1318 14325 1 0.16500 119244.000000
1319 11564 1 0.16500 119244.000000
1319 15953 1 0.16500 119244.000000
1320 11564 1 0.16500 119244.000000
1320 14165 1 0.16500 119244.000000
1321 11565 1 0.16500 119244.000000
1321 14277 1 0.16500 119244.000000
1322 11565 1 0.16500 119244.000000
1322 14294 1 0.16500 119244.000000
1323 11565 1 0.16500 119244.000000
1323 15784 1 0.16500 119244.000000
1324 11565 1 0.16500 119244.000000
1324 11847 1 0.16500 119244.000000
1325 11566 1 0.16500 119244.000000
1325 23698 1 0.16500 119244.000000
1326 11566 1 0.16500 119244.000000
1326 14485 1 0.16500 119244.000000
1327 11566 1 0.16500 119244.000000
1327 16689 1 0.16500 119244.000000
1328 11566 1 0.16500 119244.000000
1328 14069 1 0.16500 119244.000000
1329 19561 1 0.16500 119244.000000
1329 23833 1 0.16500 119244.000000
1330 23833 1 0.16500 119244.000000
1330 24076 1 0.16500 119244.000000
1331 12278 1 0.16500 119244.000000
1331 19561 1 0.16500 119244.000000
1332 11567 1 0.16500 119244.000000
1332 15172 1 0.16500 119244.000000
1333 11567 1 0.16500 119244.000000
1333 14907 1 0.16500 119244.000000
1334 11567 1 0.16500 119244.000000
1334 14117 1 0.16500 119244.000000
1335 11567 1 0.16500 119244.000000
1335 13510 1 0.16500 119244.000000
1336 11568 1 0.16500 119244.000000
1336 13799 1 0.16500 119244.000000
1337 11568 1 0.16500 119244.000000
1337 15242 1 0.16500 119244.000000
1338 11568 1 0.16500 119244.000000
1338 12366 1 0.16500 119244.000000
1339 11568 1 0.16500 119244.000000
1339 14011 1 0.16500 119244.000000
1340 11569 1 0.16500 119244.000000
1340 15520 1 0.16500 119244.000000
1341 11569 1 0.16500 119244.000000
1341 13411 1 0.16500 119244.000000
1342 11569 1 0.16500 119244.000000
1342 15784 1 0.16500 119244.000000
1343 11731 1 0.16500 119244.000000
1343 18299 1 0.16500 119244.000000
1344 11651 1 0.16500 119244.000000
1344 18299 1 0.16500 119244.000000
1345 11570 1 0.16500 119244.000000
1345 12246 1 0.16500 119244.000000
1346 11570 1 0.16500 119244.000000
1346 11757 1 0.16500 119244.000000
1347 11570 1 0.16500 119244.000000
1347 14057 1 0.16500 119244.000000
1348 11570 1 0.16500 119244.000000
1348 15998 1 0.16500 119244.000000
1349 13306 1 0.16500 119244.000000
1349 15400 1 0.16500 119244.000000
1350 13306 1 0.16500 119244.000000
1350 15114 1 0.16500 119244.000000
1351 11571 1 0.16500 119244.000000
1351 13306 1 0.16500 119244.000000
1352 15008 1 0.16500 119244.000000
1352 15114 1 0.16500 119244.000000
1353 11572 1 0.16500 119244.000000
1353 13874 1 0.16500 119244.000000
1354 14861 1 0.16500 119244.000000
1354 14952 1 0.16500 119244.000000
1355 11572 1 0.16500 119244.000000
1355 15977 1 0.16500 119244.000000
1356 11572 1 0.16500 119244.000000
1356 14861 1 0.16500 119244.000000
1357 12040 1 0.16500 119244.000000
1357 15586 1 0.16500 119244.000000
1358 11573 1 0.16500 119244.000000
1358 15113 1 0.16500 119244.000000
1359 12040 1 0.16500 119244.000000
1359 14204 1 0.16500 119244.000000
1360 11573 1 0.16500 119244.000000
1360 12040 1 0.16500 119244.000000
1361 11574 1 0.16500 119244.000000
1361 16021 1 0.16500 119244.000000
1362 11574 1 0.16500 119244.000000
1362 15573 1 0.16500 119244.000000
1363 11574 1 0.16500 119244.000000
1363 13561 1 0.16500 119244.000000
1364 11574 1 0.16500 119244.000000
1364 11709 1 0.16500 119244.000000
1365 11575 1 0.16500 119244.000000
1365 13798 1 0.16500 119244.000000
1366 11575 1 0.16500 119244.000000
1366 12009 1 0.16500 119244.000000
1367 11575 1 0.16500 119244.000000
1367 14729 1 0.16500 119244.000000
1368 11575 1 0.16500 119244.000000
1368 13445 1 0.16500 119244.000000
1369 11576 1 0.16500 119244.000000
1369 23860 1 0.16500 119244.000000
1370 11576 1 0.16500 119244.000000
1370 14506 1 0.16500 119244.000000
1371 11576 1 0.16500 119244.000000
1371 13850 1 0.16500 119244.000000
1372 11576 1 0.16500 119244.000000
1372 18325 1 0.16500 119244.000000
1373 11577 1 0.16500 119244.000000
1373 11978 1 0.16500 119244.000000
1374 11577 1 0.16500 119244.000000
1374 13416 1 0.16500 119244.000000
1375 11577 1 0.16500 119244.000000
1375 15037 1 0.16500 119244.000000
1376 11578 1 0.16500 119244.000000
1376 12643 1 0.16500 119244.000000
1377 11578 1 0.16500 119244.000000
1377 15339 1 0.16500 119244.000000
1378 11578 1 0.16500 119244.000000
1378 14113 1 0.16500 119244.000000
1379 11578 1 0.16500 119244.000000
1379 12282 1 0.16500 119244.000000
1380 14373 1 0.16500 119244.000000
1380 23641 1 0.16500 119244.000000
1381 22585 1 0.16500 119244.000000
1381 23641 1 0.16500 119244.000000
1382 15238 1 0.16500 119244.000000
1382 23641 1 0.16500 119244.000000
1383 11579 1 0.16500 119244.000000
1383 14725 1 0.16500 119244.000000
1384 11579 1 0.16500 119244.000000
1384 15920 1 0.16500 119244.000000
1385 11579 1 0.16500 119244.000000
1385 15308 1 0.16500 119244.000000
1386 11579 1 0.16500 119244.000000
1386 14504 1 0.16500 119244.000000
1387 23644 1 0.16500 119244.000000
1387 23827 1 0.16500 119244.000000
1388 14420 1 0.16500 119244.000000
1388 23644 1 0.16500 119244.000000
1389 15470 1 0.16500 119244.000000
1389 23644 1 0.16500 119244.000000
1390 11580 1 0.16500 119244.000000
1390 14846 1 0.16500 119244.000000
1391 11580 1 0.16500 119244.000000
1391 13143 1 0.16500 119244.000000
1392 11580 1 0.16500 119244.000000
1392 13039 1 0.16500 119244.000000
1393 11580 1 0.16500 119244.000000
1393 12431 1 0.16500 119244.000000
1394 11581 1 0.16500 119244.000000
1394 14951 1 0.16500 119244.000000
1395 11581 1 0.16500 119244.000000
1395 13388 1 0.16500 119244.000000
1396 11581 1 0.16500 119244.000000
1396 12163 1 0.16500 119244.000000
1397 11581 1 0.16500 119244.000000
1397 14575 1 0.16500 119244.000000
1398 11582 1 0.16500 119244.000000
1398 13904 1 0.16500 119244.000000
1399 11582 1 0.16500 119244.000000
1399 12752 1 0.16500 119244.000000
1400 11582 1 0.16500 119244.000000
1400 14222 1 0.16500 119244.000000
1401 11582 1 0.16500 119244.000000
1401 13436 1 0.16500 119244.000000
1402 11583 1 0.16500 119244.000000
1402 14743 1 0.16500 119244.000000
1403 13814 1 0.16500 119244.000000
1403 15744 1 0.16500 119244.000000
1404 11583 1 0.16500 119244.000000
1404 13418 1 0.16500 119244.000000
1405 11583 1 0.16500 119244.000000
1405 13814 1 0.16500 119244.000000
1406 12074 1 0.16500 119244.000000
1406 21865 1 0.16500 119244.000000
1407 21865 1 0.16500 119244.000000
1407 24262 1 0.16500 119244.000000
1408 15132 1 0.16500 119244.000000
1408 21865 1 0.16500 119244.000000
1409 12056 1 0.16500 119244.000000
1409 14817 1 0.16500 119244.000000
1410 11584 1 0.16500 119244.000000
1410 14817 1 0.16500 119244.000000
1411 11584 1 0.16500 119244.000000
1411 15416 1 0.16500 119244.000000
1412 11584 1 0.16500 119244.000000
1412 14948 1 0.16500 119244.000000
1413 14390 1 0.16500 119244.000000
1413 18019 1 0.16500 119244.000000
1414 17081 1 0.16500 119244.000000
1414 18019 1 0.16500 119244.000000
1415 11585 1 0.16500 119244.000000
1415 16026 1 0.16500 119244.000000
1416 11585 1 0.16500 119244.000000
1416 11704 1 0.16500 119244.000000
1417 11585 1 0.16500 119244.000000
1417 14474 1 0.16500 119244.000000
1418 11586 1 0.16500 119244.000000
1418 15073 1 0.16500 119244.000000
1419 11586 1 0.16500 119244.000000
1419 15625 1 0.16500 119244.000000
1420 11586 1 0.16500 119244.000000
1420 12973 1 0.16500 119244.000000
1421 11586 1 0.16500 119244.000000
1421 12993 1 0.16500 119244.000000
1422 11587 1 0.16500 119244.000000
1422 13421 1 0.16500 119244.000000
1423 11587 1 0.16500 119244.000000
1423 12235 1 0.16500 119244.000000
1424 11587 1 0.16500 119244.000000
1424 12486 1 0.16500 119244.000000
1425 11587 1 0.16500 119244.000000
1425 15245 1 0.16500 119244.000000
1426 11588 1 0.16500 119244.000000
1426 12715 1 0.16500 119244.000000
1427 11588 1 0.16500 119244.000000
1427 12706 1 0.16500 119244.000000
1428 11588 1 0.16500 119244.000000
1428 16235 1 0.16500 119244.000000
1429 11588 1 0.16500 119244.000000
1429 14305 1 0.16500 119244.000000
1430 11589 1 0.16500 119244.000000
1430 14881 1 0.16500 119244.000000
1431 11589 1 0.16500 119244.000000
1431 13869 1 0.16500 119244.000000
1432 11589 1 0.16500 119244.000000
1432 14892 1 0.16500 119244.000000
1433 11590 1 0.16500 119244.000000
1433 13031 1 0.16500 119244.000000
1434 11590 1 0.16500 119244.000000
1434 11882 1 0.16500 119244.000000
1435 11590 1 0.16500 119244.000000
1435 15006 1 0.16500 119244.000000
1436 11591 1 0.16500 119244.000000
1436 15559 1 0.16500 119244.000000
1437 11591 1 0.16500 119244.000000
1437 13478 1 0.16500 119244.000000
1438 11591 1 0.16500 119244.000000
1438 15373 1 0.16500 119244.000000
1439 11591 1 0.16500 119244.000000
1439 12097 1 0.16500 119244.000000
1440 11592 1 0.16500 119244.000000
1440 13667 1 0.16500 119244.000000
1441 11592 1 0.16500 119244.000000
1441 14730 1 0.16500 119244.000000
1442 11592 1 0.16500 119244.000000
1442 15988 1 0.16500 119244.000000
1443 15579 1 0.16500 119244.000000
1443 23365 1 0.16500 119244.000000
1444 20929 1 0.16500 119244.000000
1444 23365 1 0.16500 119244.000000
1445 11593 1 0.16500 119244.000000
1445 14118 1 0.16500 119244.000000
1446 11593 1 0.16500 119244.000000
1446 16022 1 0.16500 119244.000000
1447 11593 1 0.16500 119244.000000
1447 16273 1 0.16500 119244.000000
1448 11593 1 0.16500 119244.000000
1448 12726 1 0.16500 119244.000000
1449 16116 1 0.16500 119244.000000
1449 18337 1 0.16500 119244.000000
1450 18337 1 0.16500 119244.000000
1450 19273 1 0.16500 119244.000000
1451 11594 1 0.16500 119244.000000
1451 12500 1 0.16500 119244.000000
1452 11594 1 0.16500 119244.000000
1452 15569 1 0.16500 119244.000000
1453 11594 1 0.16500 119244.000000
1453 14314 1 0.16500 119244.000000
1454 11595 1 0.16500 119244.000000
1454 14199 1 0.16500 119244.000000
1455 11595 1 0.16500 119244.000000
1455 22141 1 0.16500 119244.000000
1456 11595 1 0.16500 119244.000000
1456 15242 1 0.16500 119244.000000
1457 11596 1 0.16500 119244.000000
1457 13553 1 0.16500 119244.000000
1458 11596 1 0.16500 119244.000000
1458 16084 1 0.16500 119244.000000
1459 11596 1 0.16500 119244.000000
1459 15998 1 0.16500 119244.000000
1460 12333 1 0.16500 119244.000000
1460 14949 1 0.16500 119244.000000
1461 11597 1 0.16500 119244.000000
1461 14697 1 0.16500 119244.000000
1462 11597 1 0.16500 119244.000000
1462 15565 1 0.16500 119244.000000
1463 13665 1 0.16500 119244.000000
1463 14830 1 0.16500 119244.000000
1464 11598 1 0.16500 119244.000000
1464 14393 1 0.16500 119244.000000
1465 11598 1 0.16500 119244.000000
1465 14035 1 0.16500 119244.000000
1466 11598 1 0.16500 119244.000000
1466 14071 1 0.16500 119244.000000
1467 11598 1 0.16500 119244.000000
1467 14834 1 0.16500 119244.000000
1468 11958 1 0.16500 119244.000000
1468 15786 1 0.16500 119244.000000
1469 12286 1 0.16500 119244.000000
1469 13936 1 0.16500 119244.000000
1470 11958 1 0.16500 119244.000000
1470 17319 1 0.16500 119244.000000
1471 12286 1 0.16500 119244.000000
1471 17319 1 0.16500 119244.000000
1472 11599 1 0.16500 119244.000000
1472 12097 1 0.16500 119244.000000
1473 11599 1 0.16500 119244.000000
1473 13144 1 0.16500 119244.000000
1474 11599 1 0.16500 119244.000000
1474 12452 1 0.16500 119244.000000
1475 11599 1 0.16500 119244.000000
1475 12931 1 0.16500 119244.000000
1476 20521 1 0.16500 119244.000000
1476 20785 1 0.16500 119244.000000
1477 14170 1 0.16500 119244.000000
1477 20785 1 0.16500 119244.000000
1478 11600 1 0.16500 119244.000000
1478 14746 1 0.16500 119244.000000
1479 11600 1 0.16500 119244.000000
1479 15600 1 0.16500 119244.000000
1480 11600 1 0.16500 119244.000000
1480 14983 1 0.16500 119244.000000
1481 11600 1 0.16500 119244.000000
1481 16325 1 0.16500 119244.000000
1482 11601 1 0.16500 119244.000000
1482 13980 1 0.16500 119244.000000
1483 11601 1 0.16500 119244.000000
1483 15197 1 0.16500 119244.000000
1484 11601 1 0.16500 119244.000000
1484 12001 1 0.16500 119244.000000
1485 11601 1 0.16500 119244.000000
1485 15588 1 0.16500 119244.000000
1486 11602 1 0.16500 119244.000000
1486 13935 1 0.16500 119244.000000
1487 11602 1 0.16500 119244.000000
1487 15176 1 0.16500 119244.000000
1488 11602 1 0.16500 119244.000000
1488 15701 1 0.16500 119244.000000
1489 11602 1 0.16500 119244.000000
1489 14734 1 0.16500 119244.000000
1490 11603 1 0.16500 119244.000000
1490 13302 1 0.16500 119244.000000
1491 11603 1 0.16500 119244.000000
1491 13596 1 0.16500 119244.000000
1492 11603 1 0.16500 119244.000000
1492 12045 1 0.16500 119244.000000
1493 11603 1 0.16500 119244.000000
1493 14611 1 0.16500 119244.000000
1494 11604 1 0.16500 119244.000000
1494 11929 1 0.16500 119244.000000
1495 11604 1 0.16500 119244.000000
1495 18117 1 0.16500 119244.000000
1496 11604 1 0.16500 119244.000000
1496 12758 1 0.16500 119244.000000
1497 11604 1 0.16500 119244.000000
1497 12608 1 0.16500 119244.000000
1498 11605 1 0.16500 119244.000000
1498 15490 1 0.16500 119244.000000
1499 12139 1 0.16500 119244.000000
1499 13444 1 0.16500 119244.000000
1500 11605 1 0.16500 119244.000000
1500 12139 1 0.16500 119244.000000
1501 11605 1 0.16500 119244.000000
1501 11789 1 0.16500 119244.000000
1502 11606 1 0.16500 119244.000000
1502 12070 1 0.16500 119244.000000
1503 11606 1 0.16500 119244.000000
1503 12693 1 0.16500 119244.000000
1504 11606 1 0.16500 119244.000000
1504 14681 1 0.16500 119244.000000
1505 11606 1 0.16500 119244.000000
1505 14127 1 0.16500 119244.000000
1506 11607 1 0.16500 119244.000000
1506 13889 1 0.16500 119244.000000
1507 11607 1 0.16500 119244.000000
1507 13489 1 0.16500 119244.000000
1508 11607 1 0.16500 119244.000000
1508 14688 1 0.16500 119244.000000
1509 11607 1 0.16500 119244.000000
1509 15806 1 0.16500 119244.000000
1510 11608 1 0.16500 119244.000000
1510 13527 1 0.16500 119244.000000
1511 11608 1 0.16500 119244.000000
1511 14247 1 0.16500 119244.000000
1512 11608 1 0.16500 119244.000000
1512 15168 1 0.16500 119244.000000
1513 11608 1 0.16500 119244.000000
1513 15119 1 0.16500 119244.000000
1514 11609 1 0.16500 119244.000000
1514 12719 1 0.16500 119244.000000
1515 11609 1 0.16500 119244.000000
1515 14882 1 0.16500 119244.000000
1516 11609 1 0.16500 119244.000000
1516 14557 1 0.16500 119244.000000
1517 11609 1 0.16500 119244.000000
1517 14537 1 0.16500 119244.000000
1518 11610 1 0.16500 119244.000000
1518 14039 1 0.16500 119244.000000
1519 11610 1 0.16500 119244.000000
1519 14096 1 0.16500 119244.000000
1520 11610 1 0.16500 119244.000000
1520 11908 1 0.16500 119244.000000
1521 11610 1 0.16500 119244.000000
1521 15788 1 0.16500 119244.000000
1522 11611 1 0.16500 119244.000000
1522 14155 1 0.16500 119244.000000
1523 11611 1 0.16500 119244.000000
1523 14351 1 0.16500 119244.000000
1524 11611 1 0.16500 119244.000000
1524 13627 1 0.16500 119244.000000
1525 11611 1 0.16500 119244.000000
1525 15105 1 0.16500 119244.000000
1526 11612 1 0.16500 119244.000000
1526 24372 1 0.16500 119244.000000
1527 11612 1 0.16500 119244.000000
1527 14349 1 0.16500 119244.000000
1528 11612 1 0.16500 119244.000000
1528 15666 1 0.16500 119244.000000
1529 11612 1 0.16500 119244.000000
1529 13591 1 0.16500 119244.000000
1530 11613 1 0.16500 119244.000000
1530 15227 1 0.16500 119244.000000
1531 11613 1 0.16500 119244.000000
1531 15924 1 0.16500 119244.000000
1532 11613 1 0.16500 119244.000000
1532 14229 1 0.16500 119244.000000
1533 11613 1 0.16500 119244.000000
1533 13692 1 0.16500 119244.000000
1534 11614 1 0.16500 119244.000000
1534 14422 1 0.16500 119244.000000
1535 11614 1 0.16500 119244.000000
1535 14641 1 0.16500 119244.000000
1536 11614 1 0.16500 119244.000000
1536 14686 1 0.16500 119244.000000
1537 11614 1 0.16500 119244.000000
1537 15153 1 0.16500 119244.000000
1538 11615 1 0.16500 119244.000000
1538 16056 1 0.16500 119244.000000
1539 11615 1 0.16500 119244.000000
1539 12752 1 0.16500 119244.000000
1540 11615 1 0.16500 119244.000000
1540 14320 1 0.16500 119244.000000
1541 13285 1 0.16500 119244.000000
1541 23647 1 0.16500 119244.000000
1542 14376 1 0.16500 119244.000000
1542 23647 1 0.16500 119244.000000
1543 11616 1 0.16500 119244.000000
1543 16108 1 0.16500 119244.000000
1544 11616 1 0.16500 119244.000000
1544 12335 1 0.16500 119244.000000
1545 11616 1 0.16500 119244.000000
1545 13845 1 0.16500 119244.000000
1546 11616 1 0.16500 119244.000000
1546 13483 1 0.16500 119244.000000
1547 11617 1 0.16500 119244.000000
1547 12240 1 0.16500 119244.000000
1548 11617 1 0.16500 119244.000000
1548 11806 1 0.16500 119244.000000
1549 11617 1 0.16500 119244.000000
1549 14838 1 0.16500 119244.000000
1550 11617 1 0.16500 119244.000000
1550 13460 1 0.16500 119244.000000
1551 11618 1 0.16500 119244.000000
1551 14761 1 0.16500 119244.000000
1552 11618 1 0.16500 119244.000000
1552 13518 1 0.16500 119244.000000
1553 11618 1 0.16500 119244.000000
1553 15102 1 0.16500 119244.000000
1554 11618 1 0.16500 119244.000000
1554 14470 1 0.16500 119244.000000
1555 11619 1 0.16500 119244.000000
1555 12144 1 0.16500 119244.000000
1556 11619 1 0.16500 119244.000000
1556 13768 1 0.16500 119244.000000
1557 11619 1 0.16500 119244.000000
1557 14336 1 0.16500 119244.000000
1558 11619 1 0.16500 119244.000000
1558 14535 1 0.16500 119244.000000
1559 11620 1 0.16500 119244.000000
1559 14913 1 0.16500 119244.000000
1560 11620 1 0.16500 119244.000000
1560 14812 1 0.16500 119244.000000
1561 11620 1 0.16500 119244.000000
1561 15241 1 0.16500 119244.000000
1562 11620 1 0.16500 119244.000000
1562 16001 1 0.16500 119244.000000
1563 11621 1 0.16500 119244.000000
1563 18769 1 0.16500 119244.000000
1564 11621 1 0.16500 119244.000000
1564 13795 1 0.16500 119244.000000
1565 11621 1 0.16500 119244.000000
1565 12108 1 0.16500 119244.000000
1566 11621 1 0.16500 119244.000000
1566 23680 1 0.16500 119244.000000
1567 11622 1 0.16500 119244.000000
1567 11680 1 0.16500 119244.000000
1568 12243 1 0.16500 119244.000000
1568 15827 1 0.16500 119244.000000
1569 11622 1 0.16500 119244.000000
1569 12243 1 0.16500 119244.000000
1570 11622 1 0.16500 119244.000000
1570 13494 1 0.16500 119244.000000
1571 11623 1 0.16500 119244.000000
1571 12096 1 0.16500 119244.000000
1572 11623 1 0.16500 119244.000000
1572 15650 1 0.16500 119244.000000
1573 11623 1 0.16500 119244.000000
1573 15441 1 0.16500 119244.000000
1574 11623 1 0.16500 119244.000000
1574 12075 1 0.16500 119244.000000
1575 11624 1 0.16500 119244.000000
1575 15587 1 0.16500 119244.000000
1576 11838 1 0.16500 119244.000000
1576 15587 1 0.16500 119244.000000
1577 11624 1 0.16500 119244.000000
1577 15888 1 0.16500 119244.000000
1578 11624 1 0.16500 119244.000000
1578 14440 1 0.16500 119244.000000
1579 11625 1 0.16500 119244.000000
1579 13330 1 0.16500 119244.000000
1580 11625 1 0.16500 119244.000000
1580 14561 1 0.16500 119244.000000
1581 11625 1 0.16500 119244.000000
1581 12811 1 0.16500 119244.000000
1582 11625 1 0.16500 119244.000000
1582 14288 1 0.16500 119244.000000
1583 11626 1 0.16500 119244.000000
1583 11975 1 0.16500 119244.000000
1584 11626 1 0.16500 119244.000000
1584 12852 1 0.16500 119244.000000
1585 11626 1 0.16500 119244.000000
1585 13399 1 0.16500 119244.000000
1586 11627 1 0.16500 119244.000000
1586 12289 1 0.16500 119244.000000
1587 11627 1 0.16500 119244.000000
1587 16172 1 0.16500 119244.000000
1588 12206 1 0.16500 119244.000000
1588 16172 1 0.16500 119244.000000
1589 11628 1 0.16500 119244.000000
1589 15364 1 0.16500 119244.000000
1590 11628 1 0.16500 119244.000000
1590 13506 1 0.16500 119244.000000
1591 11628 1 0.16500 119244.000000
1591 15215 1 0.16500 119244.000000
1592 11628 1 0.16500 119244.000000
1592 15318 1 0.16500 119244.000000
1593 11629 1 0.16500 119244.000000
1593 15524 1 0.16500 119244.000000
1594 11629 1 0.16500 119244.000000
1594 13016 1 0.16500 119244.000000
1595 11629 1 0.16500 119244.000000
1595 14691 1 0.16500 119244.000000
1596 11630 1 0.16500 119244.000000
1596 16080 1 0.16500 119244.000000
1597 11374 1 0.16500 119244.000000
1597 11630 1 0.16500 119244.000000
1598 11630 1 0.16500 119244.000000
1598 15147 1 0.16500 119244.000000
1599 11631 1 0.16500 119244.000000
1599 13873 1 0.16500 119244.000000
1600 11631 1 0.16500 119244.000000
1600 13628 1 0.16500 119244.000000
1601 11631 1 0.16500 119244.000000
1601 11671 1 0.16500 119244.000000
1602 11632 1 0.16500 119244.000000
1602 12036 1 0.16500 119244.000000
1603 11632 1 0.16500 119244.000000
1603 13069 1 0.16500 119244.000000
1604 11632 1 0.16500 119244.000000
1604 13551 1 0.16500 119244.000000
1605 11633 1 0.16500 119244.000000
1605 12997 1 0.16500 119244.000000
1606 11633 1 0.16500 119244.000000
1606 13975 1 0.16500 119244.000000
1607 11633 1 0.16500 119244.000000
1607 14243 1 0.16500 119244.000000
1608 11633 1 0.16500 119244.000000
1608 12211 1 0.16500 119244.000000
1609 11634 1 0.16500 119244.000000
1609 13493 1 0.16500 119244.000000
1610 11634 1 0.16500 119244.000000
1610 13995 1 0.16500 119244.000000
1611 11634 1 0.16500 119244.000000
1611 12709 1 0.16500 119244.000000
1612 13493 1 0.16500 119244.000000
1612 15407 1 0.16500 119244.000000
1613 11635 1 0.16500 119244.000000
1613 12646 1 0.16500 119244.000000
1614 11635 1 0.16500 119244.000000
1614 15775 1 0.16500 119244.000000
1615 11635 1 0.16500 119244.000000
1615 15859 1 0.16500 119244.000000
1616 11636 1 0.16500 119244.000000
1616 12467 1 0.16500 119244.000000
1617 11636 1 0.16500 119244.000000
1617 12657 1 0.16500 119244.000000
1618 11636 1 0.16500 119244.000000
1618 13645 1 0.16500 119244.000000
1619 11648 1 0.16500 119244.000000
1619 13491 1 0.16500 119244.000000
1620 11637 1 0.16500 119244.000000
1620 13491 1 0.16500 119244.000000
1621 11637 1 0.16500 119244.000000
1621 14115 1 0.16500 119244.000000
1622 11637 1 0.16500 119244.000000
1622 14486 1 0.16500 119244.000000
1623 18313 1 0.16500 119244.000000
1623 23053 1 0.16500 119244.000000
1624 12837 1 0.16500 119244.000000
1624 23053 1 0.16500 119244.000000
1625 11764 1 0.16500 119244.000000
1625 23053 1 0.16500 119244.000000
1626 11638 1 0.16500 119244.000000
1626 13727 1 0.16500 119244.000000
1627 11638 1 0.16500 119244.000000
1627 12196 1 0.16500 119244.000000
1628 11638 1 0.16500 119244.000000
1628 13483 1 0.16500 119244.000000
1629 11638 1 0.16500 119244.000000
1629 14427 1 0.16500 119244.000000
1630 11639 1 0.16500 119244.000000
1630 15514 1 0.16500 119244.000000
1631 11639 1 0.16500 119244.000000
1631 15961 1 0.16500 119244.000000
1632 11639 1 0.16500 119244.000000
1632 15594 1 0.16500 119244.000000
1633 13105 1 0.16500 119244.000000
1633 15961 1 0.16500 119244.000000
1634 20041 1 0.16500 119244.000000
1634 23650 1 0.16500 119244.000000
1635 21265 1 0.16500 119244.000000
1635 23650 1 0.16500 119244.000000
1636 13399 1 0.16500 119244.000000
1636 23650 1 0.16500 119244.000000
1637 11640 1 0.16500 119244.000000
1637 15702 1 0.16500 119244.000000
1638 11640 1 0.16500 119244.000000
1638 14681 1 0.16500 119244.000000
1639 11640 1 0.16500 119244.000000
1639 13901 1 0.16500 119244.000000
1640 11640 1 0.16500 119244.000000
1640 14956 1 0.16500 119244.000000
1641 11641 1 0.16500 119244.000000
1641 13328 1 0.16500 119244.000000
1642 11641 1 0.16500 119244.000000
1642 12540 1 0.16500 119244.000000
1643 11641 1 0.16500 119244.000000
1643 23806 1 0.16500 119244.000000
1644 19837 1 0.16500 119244.000000
1644 22093 1 0.16500 119244.000000
1645 15346 1 0.16500 119244.000000
1645 22093 1 0.16500 119244.000000
1646 14397 1 0.16500 119244.000000
1646 22093 1 0.16500 119244.000000
1647 11511 1 0.16500 119244.000000
1647 14144 1 0.16500 119244.000000
1648 12127 1 0.16500 119244.000000
1648 13117 1 0.16500 119244.000000
1649 11511 1 0.16500 119244.000000
1649 12127 1 0.16500 119244.000000
1650 13014 1 0.16500 119244.000000
1650 18553 1 0.16500 119244.000000
1651 16057 1 0.16500 119244.000000
1651 18553 1 0.16500 119244.000000
1652 11643 1 0.16500 119244.000000
1652 24312 1 0.16500 119244.000000
1653 11643 1 0.16500 119244.000000
1653 12573 1 0.16500 119244.000000
1654 11643 1 0.16500 119244.000000
1654 11786 1 0.16500 119244.000000
1655 13000 1 0.16500 119244.000000
1655 24312 1 0.16500 119244.000000
1656 11644 1 0.16500 119244.000000
1656 16092 1 0.16500 119244.000000
1657 11644 1 0.16500 119244.000000
1657 13206 1 0.16500 119244.000000
1658 11644 1 0.16500 119244.000000
1658 14309 1 0.16500 119244.000000
1659 11644 1 0.16500 119244.000000
1659 12207 1 0.16500 119244.000000
1660 11645 1 0.16500 119244.000000
1660 12552 1 0.16500 119244.000000
1661 11645 1 0.16500 119244.000000
1661 16266 1 0.16500 119244.000000
1662 11645 1 0.16500 119244.000000
1662 15271 1 0.16500 119244.000000
1663 11645 1 0.16500 119244.000000
1663 13523 1 0.16500 119244.000000
1664 11646 1 0.16500 119244.000000
1664 13015 1 0.16500 119244.000000
1665 11646 1 0.16500 119244.000000
1665 12474 1 0.16500 119244.000000
1666 11646 1 0.16500 119244.000000
1666 12624 1 0.16500 119244.000000
1667 11646 1 0.16500 119244.000000
1667 15348 1 0.16500 119244.000000
1668 11647 1 0.16500 119244.000000
1668 14987 1 0.16500 119244.000000
1669 11647 1 0.16500 119244.000000
1669 15314 1 0.16500 119244.000000
1670 11647 1 0.16500 119244.000000
1670 16242 1 0.16500 119244.000000
1671 11647 1 0.16500 119244.000000
1671 12055 1 0.16500 119244.000000
1672 11648 1 0.16500 119244.000000
1672 13415 1 0.16500 119244.000000
1673 11648 1 0.16500 119244.000000
1673 13583 1 0.16500 119244.000000
1674 11649 1 0.16500 119244.000000
1674 15497 1 0.16500 119244.000000
1675 11649 1 0.16500 119244.000000
1675 13823 1 0.16500 119244.000000
1676 11649 1 0.16500 119244.000000
1676 14683 1 0.16500 119244.000000
1677 11649 1 0.16500 119244.000000
1677 12690 1 0.16500 119244.000000
1678 11650 1 0.16500 119244.000000
1678 15332 1 0.16500 119244.000000
1679 11650 1 0.16500 119244.000000
1679 12472 1 0.16500 119244.000000
1680 11650 1 0.16500 119244.000000
1680 14237 1 0.16500 119244.000000
1681 11651 1 0.16500 119244.000000
1681 14471 1 0.16500 119244.000000
1682 11651 1 0.16500 119244.000000
1682 14206 1 0.16500 119244.000000
1683 11651 1 0.16500 119244.000000
1683 24392 1 0.16500 119244.000000
1684 17543 1 0.16500 119244.000000
1684 21733 1 0.16500 119244.000000
1685 18889 1 0.16500 119244.000000
1685 22933 1 0.16500 119244.000000
1686 13753 1 0.16500 119244.000000
1686 17109 1 0.16500 119244.000000
1687 13753 1 0.16500 119244.000000
1687 23653 1 0.16500 119244.000000
1688 13185 1 0.16500 119244.000000
1688 23653 1 0.16500 119244.000000
1689 12257 1 0.16500 119244.000000
1689 21745 1 0.16500 119244.000000
1690 14605 1 0.16500 119244.000000
1690 21745 1 0.16500 119244.000000
1691 14759 1 0.16500 119244.000000
1691 21745 1 0.16500 119244.000000
1692 11652 1 0.16500 119244.000000
1692 13644 1 0.16500 119244.000000
1693 11652 1 0.16500 119244.000000
1693 13109 1 0.16500 119244.000000
1694 11652 1 0.16500 119244.000000
1694 15380 1 0.16500 119244.000000
1695 11652 1 0.16500 119244.000000
1695 14028 1 0.16500 119244.000000
1696 12276 1 0.16500 119244.000000
1696 15964 1 0.16500 119244.000000
1697 11653 1 0.16500 119244.000000
1697 12276 1 0.16500 119244.000000
1698 11653 1 0.16500 119244.000000
1698 11778 1 0.16500 119244.000000
1699 11653 1 0.16500 119244.000000
1699 16647 1 0.16500 119244.000000
1700 11654 1 0.16500 119244.000000
1700 15719 1 0.16500 119244.000000
1701 11654 1 0.16500 119244.000000
1701 19573 1 0.16500 119244.000000
1702 11654 1 0.16500 119244.000000
1702 13403 1 0.16500 119244.000000
1703 11654 1 0.16500 119244.000000
1703 22369 1 0.16500 119244.000000
1704 11655 1 0.16500 119244.000000
1704 14821 1 0.16500 119244.000000
1705 11655 1 0.16500 119244.000000
1705 12816 1 0.16500 119244.000000
1706 11655 1 0.16500 119244.000000
1706 16073 1 0.16500 119244.000000
1707 11655 1 0.16500 119244.000000
1707 14376 1 0.16500 119244.000000
1708 11656 1 0.16500 119244.000000
1708 12264 1 0.16500 119244.000000
1709 11656 1 0.16500 119244.000000
1709 14834 1 0.16500 119244.000000
1710 11656 1 0.16500 119244.000000
1710 14763 1 0.16500 119244.000000
1711 11657 1 0.16500 119244.000000
1711 24142 1 0.16500 119244.000000
1712 14839 1 0.16500 119244.000000
1712 24142 1 0.16500 119244.000000
1713 11657 1 0.16500 119244.000000
1713 15430 1 0.16500 119244.000000
1714 11657 1 0.16500 119244.000000
1714 14409 1 0.16500 119244.000000
1715 11658 1 0.16500 119244.000000
1715 21517 1 0.16500 119244.000000
1716 11658 1 0.16500 119244.000000
1716 13004 1 0.16500 119244.000000
1717 11658 1 0.16500 119244.000000
1717 18865 1 0.16500 119244.000000
1718 12904 1 0.16500 119244.000000
1718 19429 1 0.16500 119244.000000
1719 11659 1 0.16500 119244.000000
1719 14422 1 0.16500 119244.000000
1720 12670 1 0.16500 119244.000000
1720 15880 1 0.16500 119244.000000
1721 12670 1 0.16500 119244.000000
1721 15796 1 0.16500 119244.000000
1722 11659 1 0.16500 119244.000000
1722 12670 1 0.16500 119244.000000
1723 11660 1 0.16500 119244.000000
1723 13175 1 0.16500 119244.000000
1724 11660 1 0.16500 119244.000000
1724 15289 1 0.16500 119244.000000
1725 11660 1 0.16500 119244.000000
1725 15297 1 0.16500 119244.000000
1726 11660 1 0.16500 119244.000000
1726 16065 1 0.16500 119244.000000
1727 23656 1 0.16500 119244.000000
1727 24238 1 0.16500 119244.000000
1728 11661 1 0.16500 119244.000000
1728 15718 1 0.16500 119244.000000
1729 11661 1 0.16500 119244.000000
1729 14037 1 0.16500 119244.000000
1730 11661 1 0.16500 119244.000000
1730 11994 1 0.16500 119244.000000
1731 11662 1 0.16500 119244.000000
1731 14778 1 0.16500 119244.000000
1732 11662 1 0.16500 119244.000000
1732 15656 1 0.16500 119244.000000
1733 11662 1 0.16500 119244.000000
1733 13078 1 0.16500 119244.000000
1734 11662 1 0.16500 119244.000000
1734 12973 1 0.16500 119244.000000
1735 14567 1 0.16500 119244.000000
1735 19681 1 0.16500 119244.000000
1736 19681 1 0.16500 119244.000000
1736 23269 1 0.16500 119244.000000
1737 13785 1 0.16500 119244.000000
1737 19681 1 0.16500 119244.000000
1738 11663 1 0.16500 119244.000000
1738 15519 1 0.16500 119244.000000
1739 11663 1 0.16500 119244.000000
1739 16244 1 0.16500 119244.000000
1740 14030 1 0.16500 119244.000000
1740 15519 1 0.16500 119244.000000
1741 12232 1 0.16500 119244.000000
1741 16244 1 0.16500 119244.000000
1742 17151 1 0.16500 119244.000000
1742 18033 1 0.16500 119244.000000
1743 11664 1 0.16500 119244.000000
1743 12120 1 0.16500 119244.000000
1744 11664 1 0.16500 119244.000000
1744 12150 1 0.16500 119244.000000
1745 11664 1 0.16500 119244.000000
1745 14430 1 0.16500 119244.000000
1746 11664 1 0.16500 119244.000000
1746 15276 1 0.16500 119244.000000
1747 11665 1 0.16500 119244.000000
1747 12772 1 0.16500 119244.000000
1748 11665 1 0.16500 119244.000000
1748 15135 1 0.16500 119244.000000
1749 11409 1 0.16500 119244.000000
1749 14756 1 0.16500 119244.000000
1750 15948 1 0.16500 119244.000000
1750 16801 1 0.16500 119244.000000
1751 20341 1 0.16500 119244.000000
1751 23659 1 0.16500 119244.000000
1752 13760 1 0.16500 119244.000000
1752 23659 1 0.16500 119244.000000
1753 14009 1 0.16500 119244.000000
1753 23659 1 0.16500 119244.000000
1754 11666 1 0.16500 119244.000000
1754 15455 1 0.16500 119244.000000
1755 11666 1 0.16500 119244.000000
1755 15034 1 0.16500 119244.000000
1756 11666 1 0.16500 119244.000000
1756 23329 1 0.16500 119244.000000
1757 11666 1 0.16500 119244.000000
1757 12939 1 0.16500 119244.000000
1758 15896 1 0.16500 119244.000000
1758 21049 1 0.16500 119244.000000
1759 14009 1 0.16500 119244.000000
1759 21049 1 0.16500 119244.000000
1760 21049 1 0.16500 119244.000000
1760 23353 1 0.16500 119244.000000
1761 11667 1 0.16500 119244.000000
1761 12808 1 0.16500 119244.000000
1762 11667 1 0.16500 119244.000000
1762 15275 1 0.16500 119244.000000
1763 11667 1 0.16500 119244.000000
1763 11938 1 0.16500 119244.000000
1764 11668 1 0.16500 119244.000000
1764 12055 1 0.16500 119244.000000
1765 11668 1 0.16500 119244.000000
1765 13544 1 0.16500 119244.000000
1766 11668 1 0.16500 119244.000000
1766 12146 1 0.16500 119244.000000
1767 11668 1 0.16500 119244.000000
1767 12212 1 0.16500 119244.000000
1768 11669 1 0.16500 119244.000000
1768 13983 1 0.16500 119244.000000
1769 11669 1 0.16500 119244.000000
1769 12637 1 0.16500 119244.000000
1770 11669 1 0.16500 119244.000000
1770 12577 1 0.16500 119244.000000
1771 11669 1 0.16500 119244.000000
1771 13873 1 0.16500 119244.000000
1772 11670 1 0.16500 119244.000000
1772 18201 1 0.16500 119244.000000
1773 11670 1 0.16500 119244.000000
1773 12256 1 0.16500 119244.000000
1774 11670 1 0.16500 119244.000000
1774 18829 1 0.16500 119244.000000
1775 11670 1 0.16500 119244.000000
1775 14134 1 0.16500 119244.000000
1776 16264 1 0.16500 119244.000000
1776 23662 1 0.16500 119244.000000
1777 12522 1 0.16500 119244.000000
1777 23662 1 0.16500 119244.000000
1778 11671 1 0.16500 119244.000000
1778 14297 1 0.16500 119244.000000
1779 11671 1 0.16500 119244.000000
1779 12683 1 0.16500 119244.000000
1780 11671 1 0.16500 119244.000000
1780 15997 1 0.16500 119244.000000
1781 11672 1 0.16500 119244.000000
1781 15622 1 0.16500 119244.000000
1782 11672 1 0.16500 119244.000000
1782 12601 1 0.16500 119244.000000
1783 11672 1 0.16500 119244.000000
1783 13635 1 0.16500 119244.000000
1784 11672 1 0.16500 119244.000000
1784 15717 1 0.16500 119244.000000
1785 11673 1 0.16500 119244.000000
1785 13791 1 0.16500 119244.000000
1786 11673 1 0.16500 119244.000000
1786 14791 1 0.16500 119244.000000
1787 11673 1 0.16500 119244.000000
1787 14636 1 0.16500 119244.000000
1788 11674 1 0.16500 119244.000000
1788 14696 1 0.16500 119244.000000
1789 11674 1 0.16500 119244.000000
1789 14264 1 0.16500 119244.000000
1790 11674 1 0.16500 119244.000000
1790 14477 1 0.16500 119244.000000
1791 11674 1 0.16500 119244.000000
1791 12682 1 0.16500 119244.000000
1792 11675 1 0.16500 119244.000000
1792 12632 1 0.16500 119244.000000
1793 11675 1 0.16500 119244.000000
1793 12725 1 0.16500 119244.000000
1794 11675 1 0.16500 119244.000000
1794 13764 1 0.16500 119244.000000
1795 11676 1 0.16500 119244.000000
1795 13365 1 0.16500 119244.000000
1796 11676 1 0.16500 119244.000000
1796 14639 1 0.16500 119244.000000
1797 11676 1 0.16500 119244.000000
1797 15916 1 0.16500 119244.000000
1798 11676 1 0.16500 119244.000000
1798 13902 1 0.16500 119244.000000
1799 11677 1 0.16500 119244.000000
1799 13825 1 0.16500 119244.000000
1800 11677 1 0.16500 119244.000000
1800 13061 1 0.16500 119244.000000
1801 11677 1 0.16500 119244.000000
1801 12436 1 0.16500 119244.000000
1802 11677 1 0.16500 119244.000000
1802 12156 1 0.16500 119244.000000
1803 11678 1 0.16500 119244.000000
1803 11931 1 0.16500 119244.000000
1804 11678 1 0.16500 119244.000000
1804 14294 1 0.16500 119244.000000
1805 11678 1 0.16500 119244.000000
1805 16269 1 0.16500 119244.000000
1806 11678 1 0.16500 119244.000000
1806 14387 1 0.16500 119244.000000
1807 14765 1 0.16500 119244.000000
1807 18215 1 0.16500 119244.000000
1808 13052 1 0.16500 119244.000000
1808 18215 1 0.16500 119244.000000
1809 11679 1 0.16500 119244.000000
1809 12291 1 0.16500 119244.000000
1810 11679 1 0.16500 119244.000000
1810 11951 1 0.16500 119244.000000
1811 11679 1 0.16500 119244.000000
1811 13244 1 0.16500 119244.000000
1812 11680 1 0.16500 119244.000000
1812 13452 1 0.16500 119244.000000
1813 11680 1 0.16500 119244.000000
1813 11741 1 0.16500 119244.000000
1814 11680 1 0.16500 119244.000000
1814 13917 1 0.16500 119244.000000
1815 11681 1 0.16500 119244.000000
1815 12467 1 0.16500 119244.000000
1816 11681 1 0.16500 119244.000000
1816 12736 1 0.16500 119244.000000
1817 11681 1 0.16500 119244.000000
1817 14005 1 0.16500 119244.000000
1818 11681 1 0.16500 119244.000000
1818 16051 1 0.16500 119244.000000
1819 11682 1 0.16500 119244.000000
1819 11912 1 0.16500 119244.000000
1820 11682 1 0.16500 119244.000000
1820 12834 1 0.16500 119244.000000
1821 11682 1 0.16500 119244.000000
1821 15229 1 0.16500 119244.000000
1822 11683 1 0.16500 119244.000000
1822 13192 1 0.16500 119244.000000
1823 11683 1 0.16500 119244.000000
1823 14514 1 0.16500 119244.000000
1824 11683 1 0.16500 119244.000000
1824 16273 1 0.16500 119244.000000
1825 11684 1 0.16500 119244.000000
1825 15086 1 0.16500 119244.000000
1826 11684 1 0.16500 119244.000000
1826 15617 1 0.16500 119244.000000
1827 11684 1 0.16500 119244.000000
1827 13757 1 0.16500 119244.000000
1828 11684 1 0.16500 119244.000000
1828 15567 1 0.16500 119244.000000
1829 13173 1 0.16500 119244.000000
1829 20269 1 0.16500 119244.000000
1830 20269 1 0.16500 119244.000000
1830 20509 1 0.16500 119244.000000
1831 13723 1 0.16500 119244.000000
1831 20269 1 0.16500 119244.000000
1832 11685 1 0.16500 119244.000000
1832 13894 1 0.16500 119244.000000
1833 11685 1 0.16500 119244.000000
1833 12379 1 0.16500 119244.000000
1834 11685 1 0.16500 119244.000000
1834 15026 1 0.16500 119244.000000
1835 11685 1 0.16500 119244.000000
1835 15245 1 0.16500 119244.000000
1836 11686 1 0.16500 119244.000000
1836 13474 1 0.16500 119244.000000
1837 11686 1 0.16500 119244.000000
1837 12733 1 0.16500 119244.000000
1838 11686 1 0.16500 119244.000000
1838 15407 1 0.16500 119244.000000
1839 11687 1 0.16500 119244.000000
1839 14200 1 0.16500 119244.000000
1840 11687 1 0.16500 119244.000000
1840 13080 1 0.16500 119244.000000
1841 11687 1 0.16500 119244.000000
1841 12253 1 0.16500 119244.000000
1842 11687 1 0.16500 119244.000000
1842 14215 1 0.16500 119244.000000
1843 11688 1 0.16500 119244.000000
1843 15942 1 0.16500 119244.000000
1844 11688 1 0.16500 119244.000000
1844 15561 1 0.16500 119244.000000
1845 11688 1 0.16500 119244.000000
1845 12160 1 0.16500 119244.000000
1846 11688 1 0.16500 119244.000000
1846 15087 1 0.16500 119244.000000
1847 11689 1 0.16500 119244.000000
1847 12433 1 0.16500 119244.000000
1848 11689 1 0.16500 119244.000000
1848 12328 1 0.16500 119244.000000
1849 11689 1 0.16500 119244.000000
1849 12537 1 0.16500 119244.000000
1850 11689 1 0.16500 119244.000000
1850 13944 1 0.16500 119244.000000
1851 11690 1 0.16500 119244.000000
1851 14210 1 0.16500 119244.000000
1852 11690 1 0.16500 119244.000000
1852 12786 1 0.16500 119244.000000
1853 11690 1 0.16500 119244.000000
1853 15783 1 0.16500 119244.000000
1854 11690 1 0.16500 119244.000000
1854 11751 1 0.16500 119244.000000
1855 11691 1 0.16500 119244.000000
1855 14610 1 0.16500 119244.000000
1856 11691 1 0.16500 119244.000000
1856 15032 1 0.16500 119244.000000
1857 11691 1 0.16500 119244.000000
1857 15331 1 0.16500 119244.000000
1858 18131 1 0.16500 119244.000000
1858 21553 1 0.16500 119244.000000
1859 11692 1 0.16500 119244.000000
1859 14955 1 0.16500 119244.000000
1860 11692 1 0.16500 119244.000000
1860 15116 1 0.16500 119244.000000
1861 11692 1 0.16500 119244.000000
1861 12376 1 0.16500 119244.000000
1862 11692 1 0.16500 119244.000000
1862 12820 1 0.16500 119244.000000
1863 12698 1 0.16500 119244.000000
1863 22789 1 0.16500 119244.000000
1864 16983 1 0.16500 119244.000000
1864 22789 1 0.16500 119244.000000
1865 14672 1 0.16500 119244.000000
1865 22789 1 0.16500 119244.000000
1866 16217 1 0.16500 119244.000000
1866 22033 1 0.16500 119244.000000
1867 15254 1 0.16500 119244.000000
1867 22033 1 0.16500 119244.000000
1868 11693 1 0.16500 119244.000000
1868 13994 1 0.16500 119244.000000
1869 11693 1 0.16500 119244.000000
1869 16214 1 0.16500 119244.000000
1870 11693 1 0.16500 119244.000000
1870 15560 1 0.16500 119244.000000
1871 11693 1 0.16500 119244.000000
1871 15771 1 0.16500 119244.000000
1872 11694 1 0.16500 119244.000000
1872 13009 1 0.16500 119244.000000
1873 11694 1 0.16500 119244.000000
1873 11728 1 0.16500 119244.000000
1874 11694 1 0.16500 119244.000000
1874 13531 1 0.16500 119244.000000
1875 11694 1 0.16500 119244.000000
1875 16002 1 0.16500 119244.000000
1876 15542 1 0.16500 119244.000000
1876 22741 1 0.16500 119244.000000
1877 15316 1 0.16500 119244.000000
1877 22741 1 0.16500 119244.000000
1878 16243 1 0.16500 119244.000000
1878 22741 1 0.16500 119244.000000
1879 11695 1 0.16500 119244.000000
1879 13945 1 0.16500 119244.000000
1880 11695 1 0.16500 119244.000000
1880 15739 1 0.16500 119244.000000
1881 11695 1 0.16500 119244.000000
1881 12835 1 0.16500 119244.000000
1882 11695 1 0.16500 119244.000000
1882 12299 1 0.16500 119244.000000
1883 11696 1 0.16500 119244.000000
1883 13839 1 0.16500 119244.000000
1884 11696 1 0.16500 119244.000000
1884 12810 1 0.16500 119244.000000
1885 11696 1 0.16500 119244.000000
1885 13870 1 0.16500 119244.000000
1886 11697 1 0.16500 119244.000000
1886 12122 1 0.16500 119244.000000
1887 11697 1 0.16500 119244.000000
1887 14372 1 0.16500 119244.000000
1888 11697 1 0.16500 119244.000000
1888 13138 1 0.16500 119244.000000
1889 14191 1 0.16500 119244.000000
1889 23665 1 0.16500 119244.000000
1890 16125 1 0.16500 119244.000000
1890 23665 1 0.16500 119244.000000
1891 12919 1 0.16500 119244.000000
1891 23665 1 0.16500 119244.000000
1892 11698 1 0.16500 119244.000000
1892 13768 1 0.16500 119244.000000
1893 11698 1 0.16500 119244.000000
1893 14658 1 0.16500 119244.000000
1894 13768 1 0.16500 119244.000000
1894 15386 1 0.16500 119244.000000
1895 11698 1 0.16500 119244.000000
1895 15402 1 0.16500 119244.000000
1896 21493 1 0.16500 119244.000000
1896 23668 1 0.16500 119244.000000
1897 16147 1 0.16500 119244.000000
1897 23668 1 0.16500 119244.000000
1898 11699 1 0.16500 119244.000000
1898 11866 1 0.16500 119244.000000
1899 11699 1 0.16500 119244.000000
1899 14328 1 0.16500 119244.000000
1900 11699 1 0.16500 119244.000000
1900 14233 1 0.16500 119244.000000
1901 11699 1 0.16500 119244.000000
1901 15930 1 0.16500 119244.000000
1902 14166 1 0.16500 119244.000000
1902 16261 1 0.16500 119244.000000
1903 11700 1 0.16500 119244.000000
1903 12743 1 0.16500 119244.000000
1904 15221 1 0.16500 119244.000000
1904 15580 1 0.16500 119244.000000
1905 11700 1 0.16500 119244.000000
1905 14166 1 0.16500 119244.000000
1906 11701 1 0.16500 119244.000000
1906 15077 1 0.16500 119244.000000
1907 11701 1 0.16500 119244.000000
1907 14276 1 0.16500 119244.000000
1908 11701 1 0.16500 119244.000000
1908 15799 1 0.16500 119244.000000
1909 11701 1 0.16500 119244.000000
1909 12014 1 0.16500 119244.000000
1910 11702 1 0.16500 119244.000000
1910 12790 1 0.16500 119244.000000
1911 11702 1 0.16500 119244.000000
1911 13859 1 0.16500 119244.000000
1912 13859 1 0.16500 119244.000000
1912 14640 1 0.16500 119244.000000
1913 11702 1 0.16500 119244.000000
1913 13520 1 0.16500 119244.000000
1914 11703 1 0.16500 119244.000000
1914 15996 1 0.16500 119244.000000
1915 11703 1 0.16500 119244.000000
1915 15824 1 0.16500 119244.000000
1916 11703 1 0.16500 119244.000000
1916 12934 1 0.16500 119244.000000
1917 11703 1 0.16500 119244.000000
1917 11998 1 0.16500 119244.000000
1918 11704 1 0.16500 119244.000000
1918 14746 1 0.16500 119244.000000
1919 11704 1 0.16500 119244.000000
1919 13273 1 0.16500 119244.000000
1920 11705 1 0.16500 119244.000000
1920 16023 1 0.16500 119244.000000
1921 11705 1 0.16500 119244.000000
1921 24133 1 0.16500 119244.000000
1922 11705 1 0.16500 119244.000000
1922 19153 1 0.16500 119244.000000
1923 11705 1 0.16500 119244.000000
1923 13206 1 0.16500 119244.000000
1924 15049 1 0.16500 119244.000000
1924 15833 1 0.16500 119244.000000
1925 11706 1 0.16500 119244.000000
1925 15049 1 0.16500 119244.000000
1926 11706 1 0.16500 119244.000000
1926 22357 1 0.16500 119244.000000
1927 14491 1 0.16500 119244.000000
1927 22357 1 0.16500 119244.000000
1928 12746 1 0.16500 119244.000000
1928 16009 1 0.16500 119244.000000
1929 11707 1 0.16500 119244.000000
1929 12230 1 0.16500 119244.000000
1930 11814 1 0.16500 119244.000000
1930 15767 1 0.16500 119244.000000
1931 11707 1 0.16500 119244.000000
1931 12746 1 0.16500 119244.000000
1932 11708 1 0.16500 119244.000000
1932 15779 1 0.16500 119244.000000
1933 11708 1 0.16500 119244.000000
1933 15815 1 0.16500 119244.000000
1934 11708 1 0.16500 119244.000000
1934 14593 1 0.16500 119244.000000
1935 11708 1 0.16500 119244.000000
1935 14702 1 0.16500 119244.000000
1936 11709 1 0.16500 119244.000000
1936 13756 1 0.16500 119244.000000
1937 11709 1 0.16500 119244.000000
1937 11948 1 0.16500 119244.000000
1938 11709 1 0.16500 119244.000000
1938 13321 1 0.16500 119244.000000
1939 14017 1 0.16500 119244.000000
1939 16619 1 0.16500 119244.000000
1940 11710 1 0.16500 119244.000000
1940 11759 1 0.16500 119244.000000
1941 11710 1 0.16500 119244.000000
1941 13282 1 0.16500 119244.000000
1942 11710 1 0.16500 119244.000000
1942 15442 1 0.16500 119244.000000
1943 11711 1 0.16500 119244.000000
1943 12522 1 0.16500 119244.000000
1944 11711 1 0.16500 119244.000000
1944 17011 1 0.16500 119244.000000
1945 11711 1 0.16500 119244.000000
1945 18781 1 0.16500 119244.000000
1946 11335 1 0.16500 119244.000000
1946 12425 1 0.16500 119244.000000
1947 11712 1 0.16500 119244.000000
1947 14884 1 0.16500 119244.000000
1948 11335 1 0.16500 119244.000000
1948 13831 1 0.16500 119244.000000
1949 11713 1 0.16500 119244.000000
1949 14848 1 0.16500 119244.000000
1950 11713 1 0.16500 119244.000000
1950 12953 1 0.16500 119244.000000
1951 11713 1 0.16500 119244.000000
1951 24196 1 0.16500 119244.000000
1952 11714 1 0.16500 119244.000000
1952 13487 1 0.16500 119244.000000
1953 11714 1 0.16500 119244.000000
1953 13871 1 0.16500 119244.000000
1954 11714 1 0.16500 119244.000000
1954 13957 1 0.16500 119244.000000
1955 11714 1 0.16500 119244.000000
1955 12834 1 0.16500 119244.000000
1956 11715 1 0.16500 119244.000000
1956 12003 1 0.16500 119244.000000
1957 11715 1 0.16500 119244.000000
1957 12235 1 0.16500 119244.000000
1958 11715 1 0.16500 119244.000000
1958 19117 1 0.16500 119244.000000
1959 11715 1 0.16500 119244.000000
1959 12817 1 0.16500 119244.000000
1960 11716 1 0.16500 119244.000000
1960 16787 1 0.16500 119244.000000
1961 11716 1 0.16500 119244.000000
1961 13641 1 0.16500 119244.000000
1962 11716 1 0.16500 119244.000000
1962 13166 1 0.16500 119244.000000
1963 11716 1 0.16500 119244.000000
1963 12627 1 0.16500 119244.000000
1964 11717 1 0.16500 119244.000000
1964 11861 1 0.16500 119244.000000
1965 11717 1 0.16500 119244.000000
1965 14220 1 0.16500 119244.000000
1966 11717 1 0.16500 119244.000000
1966 16086 1 0.16500 119244.000000
1967 11717 1 0.16500 119244.000000
1967 15738 1 0.16500 119244.000000
1968 11718 1 0.16500 119244.000000
1968 16207 1 0.16500 119244.000000
1969 11718 1 0.16500 119244.000000
1969 16381 1 0.16500 119244.000000
1970 11718 1 0.16500 119244.000000
1970 24145 1 0.16500 119244.000000
1971 11719 1 0.16500 119244.000000
1971 23197 1 0.16500 119244.000000
1972 11719 1 0.16500 119244.000000
1972 21589 1 0.16500 119244.000000
1973 11719 1 0.16500 119244.000000
1973 15443 1 0.16500 119244.000000
1974 13308 1 0.16500 119244.000000
1974 15443 1 0.16500 119244.000000
1975 14430 1 0.16500 119244.000000
1975 15582 1 0.16500 119244.000000
1976 11720 1 0.16500 119244.000000
1976 14637 1 0.16500 119244.000000
1977 11720 1 0.16500 119244.000000
1977 15582 1 0.16500 119244.000000
1978 11720 1 0.16500 119244.000000
1978 12584 1 0.16500 119244.000000
1979 11721 1 0.16500 119244.000000
1979 11746 1 0.16500 119244.000000
1980 11721 1 0.16500 119244.000000
1980 21241 1 0.16500 119244.000000
1981 11721 1 0.16500 119244.000000
1981 13129 1 0.16500 119244.000000
1982 11721 1 0.16500 119244.000000
1982 15051 1 0.16500 119244.000000
1983 11722 1 0.16500 119244.000000
1983 12768 1 0.16500 119244.000000
1984 11722 1 0.16500 119244.000000
1984 20941 1 0.16500 119244.000000
1985 11722 1 0.16500 119244.000000
1985 13752 1 0.16500 119244.000000
1986 11722 1 0.16500 119244.000000
1986 17683 1 0.16500 119244.000000
1987 11723 1 0.16500 119244.000000
1987 16983 1 0.16500 119244.000000
1988 11723 1 0.16500 119244.000000
1988 11777 1 0.16500 119244.000000
1989 15617 1 0.16500 119244.000000
1989 15646 1 0.16500 119244.000000
1990 11723 1 0.16500 119244.000000
1990 15646 1 0.16500 119244.000000
1991 11724 1 0.16500 119244.000000
1991 13697 1 0.16500 119244.000000
1992 11724 1 0.16500 119244.000000
1992 15898 1 0.16500 119244.000000
1993 11724 1 0.16500 119244.000000
1993 17333 1 0.16500 119244.000000
1994 11724 1 0.16500 119244.000000
1994 11932 1 0.16500 119244.000000
1995 11725 1 0.16500 119244.000000
1995 13524 1 0.16500 119244.000000
1996 11725 1 0.16500 119244.000000
1996 12943 1 0.16500 119244.000000
1997 11725 1 0.16500 119244.000000
1997 14198 1 0.16500 119244.000000
1998 11725 1 0.16500 119244.000000
1998 15226 1 0.16500 119244.000000
1999 11726 1 0.16500 119244.000000
1999 14484 1 0.16500 119244.000000
2000 11726 1 0.16500 119244.000000
2000 12866 1 0.16500 119244.000000
2001 11726 1 0.16500 119244.000000
2001 14145 1 0.16500 119244.000000
2002 11726 1 0.16500 119244.000000
2002 14779 1 0.16500 119244.000000
2003 11727 1 0.16500 119244.000000
2003 11961 1 0.16500 119244.000000
2004 11727 1 0.16500 119244.000000
2004 13682 1 0.16500 119244.000000
2005 11727 1 0.16500 119244.000000
2005 15324 1 0.16500 119244.000000
2006 11728 1 0.16500 119244.000000
2006 15743 1 0.16500 119244.000000
2007 11728 1 0.16500 119244.000000
2007 14562 1 0.16500 119244.000000
2008 11728 1 0.16500 119244.000000
2008 14383 1 0.16500 119244.000000
2009 21253 1 0.16500 119244.000000
2009 21649 1 0.16500 119244.000000
2010 11729 1 0.16500 119244.000000
2010 14567 1 0.16500 119244.000000
2011 11729 1 0.16500 119244.000000
2011 12754 1 0.16500 119244.000000
2012 11729 1 0.16500 119244.000000
2012 12838 1 0.16500 119244.000000
2013 11729 1 0.16500 119244.000000
2013 13035 1 0.16500 119244.000000
2014 11730 1 0.16500 119244.000000
2014 16633 1 0.16500 119244.000000
2015 11730 1 0.16500 119244.000000
2015 23899 1 0.16500 119244.000000
2016 11730 1 0.16500 119244.000000
2016 15399 1 0.16500 119244.000000
2017 11730 1 0.16500 119244.000000
2017 12953 1 0.16500 119244.000000
2018 13413 1 0.16500 119244.000000
2018 16605 1 0.16500 119244.000000
2019 16605 1 0.16500 119244.000000
2019 24079 1 0.16500 119244.000000
2020 11731 1 0.16500 119244.000000
2020 14822 1 0.16500 119244.000000
2021 11731 1 0.16500 119244.000000
2021 23788 1 0.16500 119244.000000
2022 11731 1 0.16500 119244.000000
2022 12033 1 0.16500 119244.000000
2023 11732 1 0.16500 119244.000000
2023 12599 1 0.16500 119244.000000
2024 11732 1 0.16500 119244.000000
2024 14771 1 0.16500 119244.000000
2025 11732 1 0.16500 119244.000000
2025 20845 1 0.16500 119244.000000
2026 11732 1 0.16500 119244.000000
2026 16507 1 0.16500 119244.000000
2027 23671 1 0.16500 119244.000000
2027 24337 1 0.16500 119244.000000
2028 15568 1 0.16500 119244.000000
2028 23671 1 0.16500 119244.000000
2029 11733 1 0.16500 119244.000000
2029 13154 1 0.16500 119244.000000
2030 11733 1 0.16500 119244.000000
2030 14849 1 0.16500 119244.000000
2031 11733 1 0.16500 119244.000000
2031 19705 1 0.16500 119244.000000
2032 11733 1 0.16500 119244.000000
2032 12268 1 0.16500 119244.000000
2033 11734 1 0.16500 119244.000000
2033 13677 1 0.16500 119244.000000
2034 11734 1 0.16500 119244.000000
2034 16073 1 0.16500 119244.000000
2035 11734 1 0.16500 119244.000000
2035 15113 1 0.16500 119244.000000
2036 11734 1 0.16500 119244.000000
2036 16007 1 0.16500 119244.000000
2037 11735 1 0.16500 119244.000000
2037 14604 1 0.16500 119244.000000
2038 11735 1 0.16500 119244.000000
2038 14744 1 0.16500 119244.000000
2039 11735 1 0.16500 119244.000000
2039 14658 1 0.16500 119244.000000
2040 11735 1 0.16500 119244.000000
2040 11946 1 0.16500 119244.000000
2041 16115 1 0.16500 119244.000000
2041 18325 1 0.16500 119244.000000
2042 18325 1 0.16500 119244.000000
2042 24202 1 0.16500 119244.000000
2043 18709 1 0.16500 119244.000000
2043 22165 1 0.16500 119244.000000
2044 14924 1 0.16500 119244.000000
2044 18709 1 0.16500 119244.000000
2045 18709 1 0.16500 119244.000000
2045 20125 1 0.16500 119244.000000
2046 16871 1 0.16500 119244.000000
2046 23674 1 0.16500 119244.000000
2047 14524 1 0.16500 119244.000000
2047 23674 1 0.16500 119244.000000
2048 14964 1 0.16500 119244.000000
2048 23674 1 0.16500 119244.000000
2049 11736 1 0.16500 119244.000000
2049 12887 1 0.16500 119244.000000
2050 11736 1 0.16500 119244.000000
2050 15080 1 0.16500 119244.000000
2051 11736 1 0.16500 119244.000000
2051 13246 1 0.16500 119244.000000
2052 11736 1 0.16500 119244.000000
2052 12955 1 0.16500 119244.000000
2053 11737 1 0.16500 119244.000000
2053 11742 1 0.16500 119244.000000
2054 11737 1 0.16500 119244.000000
2054 12913 1 0.16500 119244.000000
2055 11738 1 0.16500 119244.000000
2055 12000 1 0.16500 119244.000000
2056 11738 1 0.16500 119244.000000
2056 15681 1 0.16500 119244.000000
2057 11738 1 0.16500 119244.000000
2057 15819 1 0.16500 119244.000000
2058 11738 1 0.16500 119244.000000
2058 11924 1 0.16500 119244.000000
2059 11739 1 0.16500 119244.000000
2059 13069 1 0.16500 119244.000000
2060 11739 1 0.16500 119244.000000
2060 12002 1 0.16500 119244.000000
2061 11739 1 0.16500 119244.000000
2061 13930 1 0.16500 119244.000000
2062 11740 1 0.16500 119244.000000
2062 15611 1 0.16500 119244.000000
2063 11740 1 0.16500 119244.000000
2063 14800 1 0.16500 119244.000000
2064 11740 1 0.16500 119244.000000
2064 12170 1 0.16500 119244.000000
2065 11740 1 0.16500 119244.000000
2065 15344 1 0.16500 119244.000000
2066 17683 1 0.16500 119244.000000
2066 23521 1 0.16500 119244.000000
2067 11741 1 0.16500 119244.000000
2067 13307 1 0.16500 119244.000000
2068 11741 1 0.16500 119244.000000
2068 15033 1 0.16500 119244.000000
2069 11741 1 0.16500 119244.000000
2069 12761 1 0.16500 119244.000000
2070 11742 1 0.16500 119244.000000
2070 11795 1 0.16500 119244.000000
2071 11742 1 0.16500 119244.000000
2071 14160 1 0.16500 119244.000000
2072 11743 1 0.16500 119244.000000
2072 13642 1 0.16500 119244.000000
2073 11743 1 0.16500 119244.000000
2073 14692 1 0.16500 119244.000000
2074 11436 1 0.16500 119244.000000
2074 15513 1 0.16500 119244.000000
2075 11744 1 0.16500 119244.000000
2075 12251 1 0.16500 119244.000000
2076 11744 1 0.16500 119244.000000
2076 14120 1 0.16500 119244.000000
2077 11744 1 0.16500 119244.000000
2077 14890 1 0.16500 119244.000000
2078 11744 1 0.16500 119244.000000
2078 16178 1 0.16500 119244.000000
2079 11745 1 0.16500 119244.000000
2079 13876 1 0.16500 119244.000000
2080 11745 1 0.16500 119244.000000
2080 14567 1 0.16500 119244.000000
2081 11745 1 0.16500 119244.000000
2081 12697 1 0.16500 119244.000000
2082 11746 1 0.16500 119244.000000
2082 12158 1 0.16500 119244.000000
2083 11746 1 0.16500 119244.000000
2083 15865 1 0.16500 119244.000000
2084 11747 1 0.16500 119244.000000
2084 14171 1 0.16500 119244.000000
2085 11747 1 0.16500 119244.000000
2085 14513 1 0.16500 119244.000000
2086 11747 1 0.16500 119244.000000
2086 15770 1 0.16500 119244.000000
2087 11747 1 0.16500 119244.000000
2087 12642 1 0.16500 119244.000000
2088 11748 1 0.16500 119244.000000
2088 12159 1 0.16500 119244.000000
2089 11748 1 0.16500 119244.000000
2089 13419 1 0.16500 119244.000000
2090 11748 1 0.16500 119244.000000
2090 12872 1 0.16500 119244.000000
2091 11748 1 0.16500 119244.000000
2091 13632 1 0.16500 119244.000000
2092 11749 1 0.16500 119244.000000
2092 15510 1 0.16500 119244.000000
2093 11749 1 0.16500 119244.000000
2093 13434 1 0.16500 119244.000000
2094 11749 1 0.16500 119244.000000
2094 14536 1 0.16500 119244.000000
2095 11749 1 0.16500 119244.000000
2095 23758 1 0.16500 119244.000000
2096 14188 1 0.16500 119244.000000
2096 18421 1 0.16500 119244.000000
2097 18421 1 0.16500 119244.000000
2097 23761 1 0.16500 119244.000000
2098 11750 1 0.16500 119244.000000
2098 16087 1 0.16500 119244.000000
2099 16087 1 0.16500 119244.000000
2099 24097 1 0.16500 119244.000000
2100 11750 1 0.16500 119244.000000
2100 17487 1 0.16500 119244.000000
2101 11751 1 0.16500 119244.000000
2101 11771 1 0.16500 119244.000000
2102 11751 1 0.16500 119244.000000
2102 15535 1 0.16500 119244.000000
2103 11751 1 0.16500 119244.000000
2103 15534 1 0.16500 119244.000000
2104 11752 1 0.16500 119244.000000
2104 15973 1 0.16500 119244.000000
2105 11752 1 0.16500 119244.000000
2105 13206 1 0.16500 119244.000000
2106 11752 1 0.16500 119244.000000
2106 15777 1 0.16500 119244.000000
2107 20797 1 0.16500 119244.000000
2107 23677 1 0.16500 119244.000000
2108 16105 1 0.16500 119244.000000
2108 23677 1 0.16500 119244.000000
2109 11753 1 0.16500 119244.000000
2109 12574 1 0.16500 119244.000000
2110 11753 1 0.16500 119244.000000
2110 15527 1 0.16500 119244.000000
2111 11753 1 0.16500 119244.000000
2111 14320 1 0.16500 119244.000000
2112 11753 1 0.16500 119244.000000
2112 24082 1 0.16500 119244.000000
2113 11754 1 0.16500 119244.000000
2113 15694 1 0.16500 119244.000000
2114 11754 1 0.16500 119244.000000
2114 12762 1 0.16500 119244.000000
2115 11754 1 0.16500 119244.000000
2115 13245 1 0.16500 119244.000000
2116 11754 1 0.16500 119244.000000
2116 14951 1 0.16500 119244.000000
2117 11983 1 0.16500 119244.000000
2117 13574 1 0.16500 119244.000000
2118 11755 1 0.16500 119244.000000
2118 13574 1 0.16500 119244.000000
2119 11755 1 0.16500 119244.000000
2119 15680 1 0.16500 119244.000000
2120 11755 1 0.16500 119244.000000
2120 13786 1 0.16500 119244.000000
2121 11756 1 0.16500 119244.000000
2121 13722 1 0.16500 119244.000000
2122 11756 1 0.16500 119244.000000
2122 13204 1 0.16500 119244.000000
2123 11756 1 0.16500 119244.000000
2123 12541 1 0.16500 119244.000000
2124 11756 1 0.16500 119244.000000
2124 16139 1 0.16500 119244.000000
2125 11757 1 0.16500 119244.000000
2125 16181 1 0.16500 119244.000000
2126 11757 1 0.16500 119244.000000
2126 12947 1 0.16500 119244.000000
2127 11758 1 0.16500 119244.000000
2127 12129 1 0.16500 119244.000000
2128 11758 1 0.16500 119244.000000
2128 12414 1 0.16500 119244.000000
2129 11758 1 0.16500 119244.000000
2129 15805 1 0.16500 119244.000000
2130 11758 1 0.16500 119244.000000
2130 15201 1 0.16500 119244.000000
2131 11759 1 0.16500 119244.000000
2131 14580 1 0.16500 119244.000000
2132 11759 1 0.16500 119244.000000
2132 14058 1 0.16500 119244.000000
2133 11760 1 0.16500 119244.000000
2133 11813 1 0.16500 119244.000000
2134 11760 1 0.16500 119244.000000
2134 13100 1 0.16500 119244.000000
2135 11760 1 0.16500 119244.000000
2135 14958 1 0.16500 119244.000000
2136 11760 1 0.16500 119244.000000
2136 13425 1 0.16500 119244.000000
2137 11761 1 0.16500 119244.000000
2137 13885 1 0.16500 119244.000000
2138 11761 1 0.16500 119244.000000
2138 15308 1 0.16500 119244.000000
2139 11761 1 0.16500 119244.000000
2139 22441 1 0.16500 119244.000000
2140 11762 1 0.16500 119244.000000
2140 13604 1 0.16500 119244.000000
2141 11762 1 0.16500 119244.000000
2141 12862 1 0.16500 119244.000000
2142 11762 1 0.16500 119244.000000
2142 12558 1 0.16500 119244.000000
2143 11762 1 0.16500 119244.000000
2143 14854 1 0.16500 119244.000000
2144 11763 1 0.16500 119244.000000
2144 15964 1 0.16500 119244.000000
2145 11763 1 0.16500 119244.000000
2145 12857 1 0.16500 119244.000000
2146 11763 1 0.16500 119244.000000
2146 13291 1 0.16500 119244.000000
2147 11763 1 0.16500 119244.000000
2147 12884 1 0.16500 119244.000000
2148 17417 1 0.16500 119244.000000
2148 18159 1 0.16500 119244.000000
2149 11764 1 0.16500 119244.000000
2149 13221 1 0.16500 119244.000000
2150 11764 1 0.16500 119244.000000
2150 19285 1 0.16500 119244.000000
2151 11764 1 0.16500 119244.000000
2151 14705 1 0.16500 119244.000000
2152 11765 1 0.16500 119244.000000
2152 15501 1 0.16500 119244.000000
2153 11765 1 0.16500 119244.000000
2153 15756 1 0.16500 119244.000000
2154 11765 1 0.16500 119244.000000
2154 14855 1 0.16500 119244.000000
2155 11765 1 0.16500 119244.000000
2155 15985 1 0.16500 119244.000000
2156 11766 1 0.16500 119244.000000
2156 15566 1 0.16500 119244.000000
2157 11766 1 0.16500 119244.000000
2157 15974 1 0.16500 119244.000000
2158 11766 1 0.16500 119244.000000
2158 13562 1 0.16500 119244.000000
2159 14150 1 0.16500 119244.000000
2159 23680 1 0.16500 119244.000000
2160 12396 1 0.16500 119244.000000
2160 23680 1 0.16500 119244.000000
2161 12559 1 0.16500 119244.000000
2161 21217 1 0.16500 119244.000000
2162 16158 1 0.16500 119244.000000
2162 21217 1 0.16500 119244.000000
2163 14133 1 0.16500 119244.000000
2163 22657 1 0.16500 119244.000000
2164 21217 1 0.16500 119244.000000
2164 22657 1 0.16500 119244.000000
2165 14017 1 0.16500 119244.000000
2165 23683 1 0.16500 119244.000000
2166 13686 1 0.16500 119244.000000
2166 23683 1 0.16500 119244.000000
2167 11767 1 0.16500 119244.000000
2167 15057 1 0.16500 119244.000000
2168 11767 1 0.16500 119244.000000
2168 14178 1 0.16500 119244.000000
2169 11767 1 0.16500 119244.000000
2169 15110 1 0.16500 119244.000000
2170 11767 1 0.16500 119244.000000
2170 14313 1 0.16500 119244.000000
2171 11768 1 0.16500 119244.000000
2171 13124 1 0.16500 119244.000000
2172 11768 1 0.16500 119244.000000
2172 14401 1 0.16500 119244.000000
2173 11768 1 0.16500 119244.000000
2173 16117 1 0.16500 119244.000000
2174 11768 1 0.16500 119244.000000
2174 15141 1 0.16500 119244.000000
2175 11769 1 0.16500 119244.000000
2175 12569 1 0.16500 119244.000000
2176 16100 1 0.16500 119244.000000
2176 17221 1 0.16500 119244.000000
2177 11769 1 0.16500 119244.000000
2177 23959 1 0.16500 119244.000000
2178 11769 1 0.16500 119244.000000
2178 16100 1 0.16500 119244.000000
2179 11770 1 0.16500 119244.000000
2179 15028 1 0.16500 119244.000000
2180 11770 1 0.16500 119244.000000
2180 14137 1 0.16500 119244.000000
2181 11771 1 0.16500 119244.000000
2181 15468 1 0.16500 119244.000000
2182 11771 1 0.16500 119244.000000
2182 13790 1 0.16500 119244.000000
2183 11771 1 0.16500 119244.000000
2183 13626 1 0.16500 119244.000000
2184 11772 1 0.16500 119244.000000
2184 12382 1 0.16500 119244.000000
2185 11772 1 0.16500 119244.000000
2185 14383 1 0.16500 119244.000000
2186 11772 1 0.16500 119244.000000
2186 16219 1 0.16500 119244.000000
2187 11772 1 0.16500 119244.000000
2187 13943 1 0.16500 119244.000000
2188 11773 1 0.16500 119244.000000
2188 12591 1 0.16500 119244.000000
2189 11773 1 0.16500 119244.000000
2189 15828 1 0.16500 119244.000000
2190 11773 1 0.16500 119244.000000
2190 12183 1 0.16500 119244.000000
2191 11773 1 0.16500 119244.000000
2191 13612 1 0.16500 119244.000000
2192 11774 1 0.16500 119244.000000
2192 16212 1 0.16500 119244.000000
2193 11774 1 0.16500 119244.000000
2193 16008 1 0.16500 119244.000000
2194 15097 1 0.16500 119244.000000
2194 16029 1 0.16500 119244.000000
2195 11774 1 0.16500 119244.000000
2195 16029 1 0.16500 119244.000000
2196 11775 1 0.16500 119244.000000
2196 15493 1 0.16500 119244.000000
2197 11775 1 0.16500 119244.000000
2197 15295 1 0.16500 119244.000000
2198 11775 1 0.16500 119244.000000
2198 15723 1 0.16500 119244.000000
2199 11775 1 0.16500 119244.000000
2199 14860 1 0.16500 119244.000000
2200 14985 1 0.16500 119244.000000
2200 24317 1 0.16500 119244.000000
2201 14662 1 0.16500 119244.000000
2201 24317 1 0.16500 119244.000000
2202 11776 1 0.16500 119244.000000
2202 12537 1 0.16500 119244.000000
2203 11776 1 0.16500 119244.000000
2203 12514 1 0.16500 119244.000000
2204 11776 1 0.16500 119244.000000
2204 15756 1 0.16500 119244.000000
2205 11776 1 0.16500 119244.000000
2205 13577 1 0.16500 119244.000000
2206 11777 1 0.16500 119244.000000
2206 15624 1 0.16500 119244.000000
2207 11777 1 0.16500 119244.000000
2207 12844 1 0.16500 119244.000000
2208 11777 1 0.16500 119244.000000
2208 11784 1 0.16500 119244.000000
2209 11778 1 0.16500 119244.000000
2209 14853 1 0.16500 119244.000000
2210 11778 1 0.16500 119244.000000
2210 12731 1 0.16500 119244.000000
2211 11778 1 0.16500 119244.000000
2211 12677 1 0.16500 119244.000000
2212 11779 1 0.16500 119244.000000
2212 12876 1 0.16500 119244.000000
2213 11779 1 0.16500 119244.000000
2213 15020 1 0.16500 119244.000000
2214 11779 1 0.16500 119244.000000
2214 12401 1 0.16500 119244.000000
2215 11779 1 0.16500 119244.000000
2215 16205 1 0.16500 119244.000000
2216 11780 1 0.16500 119244.000000
2216 12155 1 0.16500 119244.000000
2217 11780 1 0.16500 119244.000000
2217 20365 1 0.16500 119244.000000
2218 11781 1 0.16500 119244.000000
2218 15017 1 0.16500 119244.000000
2219 11781 1 0.16500 119244.000000
2219 12419 1 0.16500 119244.000000
2220 11781 1 0.16500 119244.000000
2220 15243 1 0.16500 119244.000000
2221 11781 1 0.16500 119244.000000
2221 15469 1 0.16500 119244.000000
2222 11782 1 0.16500 119244.000000
2222 12965 1 0.16500 119244.000000
2223 11782 1 0.16500 119244.000000
2223 14929 1 0.16500 119244.000000
2224 11782 1 0.16500 119244.000000
2224 13526 1 0.16500 119244.000000
2225 11782 1 0.16500 119244.000000
2225 14271 1 0.16500 119244.000000
2226 11783 1 0.16500 119244.000000
2226 13169 1 0.16500 119244.000000
2227 11783 1 0.16500 119244.000000
2227 15382 1 0.16500 119244.000000
2228 11783 1 0.16500 119244.000000
2228 15169 1 0.16500 119244.000000
2229 11783 1 0.16500 119244.000000
2229 13159 1 0.16500 119244.000000
2230 11784 1 0.16500 119244.000000
2230 14771 1 0.16500 119244.000000
2231 11784 1 0.16500 119244.000000
2231 15567 1 0.16500 119244.000000
2232 11784 1 0.16500 119244.000000
2232 12698 1 0.16500 119244.000000
2233 12277 1 0.16500 119244.000000
2233 17445 1 0.16500 119244.000000
2234 17445 1 0.16500 119244.000000
2234 20893 1 0.16500 119244.000000
2235 11785 1 0.16500 119244.000000
2235 13636 1 0.16500 119244.000000
2236 11785 1 0.16500 119244.000000
2236 12684 1 0.16500 119244.000000
2237 11785 1 0.16500 119244.000000
2237 14535 1 0.16500 119244.000000
2238 11785 1 0.16500 119244.000000
2238 13157 1 0.16500 119244.000000
2239 11786 1 0.16500 119244.000000
2239 14719 1 0.16500 119244.000000
2240 11786 1 0.16500 119244.000000
2240 23908 1 0.16500 119244.000000
2241 11786 1 0.16500 119244.000000
2241 12304 1 0.16500 119244.000000
2242 11787 1 0.16500 119244.000000
2242 15740 1 0.16500 119244.000000
2243 11787 1 0.16500 119244.000000
2243 13500 1 0.16500 119244.000000
2244 11787 1 0.16500 119244.000000
2244 12696 1 0.16500 119244.000000
2245 11787 1 0.16500 119244.000000
2245 15546 1 0.16500 119244.000000
2246 11788 1 0.16500 119244.000000
2246 18243 1 0.16500 119244.000000
2247 11788 1 0.16500 119244.000000
2247 16193 1 0.16500 119244.000000
2248 11788 1 0.16500 119244.000000
2248 12887 1 0.16500 119244.000000
2249 11788 1 0.16500 119244.000000
2249 14691 1 0.16500 119244.000000
2250 11789 1 0.16500 119244.000000
2250 14295 1 0.16500 119244.000000
2251 11789 1 0.16500 119244.000000
2251 12763 1 0.16500 119244.000000
2252 11789 1 0.16500 119244.000000
2252 15261 1 0.16500 119244.000000
2253 11790 1 0.16500 119244.000000
2253 24067 1 0.16500 119244.000000
2254 11790 1 0.16500 119244.000000
2254 13317 1 0.16500 119244.000000
2255 11790 1 0.16500 119244.000000
2255 13386 1 0.16500 119244.000000
2256 11790 1 0.16500 119244.000000
2256 13714 1 0.16500 119244.000000
2257 11791 1 0.16500 119244.000000
2257 12704 1 0.16500 119244.000000
2258 11791 1 0.16500 119244.000000
2258 14334 1 0.16500 119244.000000
2259 11791 1 0.16500 119244.000000
2259 15722 1 0.16500 119244.000000
2260 11791 1 0.16500 119244.000000
2260 13214 1 0.16500 119244.000000
2261 11792 1 0.16500 119244.000000
2261 14481 1 0.16500 119244.000000
2262 11792 1 0.16500 119244.000000
2262 15798 1 0.16500 119244.000000
2263 11792 1 0.16500 119244.000000
2263 12823 1 0.16500 119244.000000
2264 11792 1 0.16500 119244.000000
2264 14723 1 0.16500 119244.000000
2265 11793 1 0.16500 119244.000000
2265 14370 1 0.16500 119244.000000
2266 11793 1 0.16500 119244.000000
2266 13010 1 0.16500 119244.000000
2267 11793 1 0.16500 119244.000000
2267 13498 1 0.16500 119244.000000
2268 11793 1 0.16500 119244.000000
2268 12189 1 0.16500 119244.000000
2269 11967 1 0.16500 119244.000000
2269 16150 1 0.16500 119244.000000
2270 11794 1 0.16500 119244.000000
2270 16150 1 0.16500 119244.000000
2271 11794 1 0.16500 119244.000000
2271 16013 1 0.16500 119244.000000
2272 11794 1 0.16500 119244.000000
2272 12008 1 0.16500 119244.000000
2273 11795 1 0.16500 119244.000000
2273 12451 1 0.16500 119244.000000
2274 11795 1 0.16500 119244.000000
2274 14634 1 0.16500 119244.000000
2275 11795 1 0.16500 119244.000000
2275 14885 1 0.16500 119244.000000
2276 11796 1 0.16500 119244.000000
2276 14085 1 0.16500 119244.000000
2277 11796 1 0.16500 119244.000000
2277 12716 1 0.16500 119244.000000
2278 11796 1 0.16500 119244.000000
2278 13160 1 0.16500 119244.000000
2279 11796 1 0.16500 119244.000000
2279 15943 1 0.16500 119244.000000
2280 11797 1 0.16500 119244.000000
2280 15014 1 0.16500 119244.000000
2281 11797 1 0.16500 119244.000000
2281 13561 1 0.16500 119244.000000
2282 11797 1 0.16500 119244.000000
2282 15156 1 0.16500 119244.000000
2283 11797 1 0.16500 119244.000000
2283 15309 1 0.16500 119244.000000
2284 11798 1 0.16500 119244.000000
2284 13280 1 0.16500 119244.000000
2285 11798 1 0.16500 119244.000000
2285 13293 1 0.16500 119244.000000
2286 11798 1 0.16500 119244.000000
2286 12083 1 0.16500 119244.000000
2287 11798 1 0.16500 119244.000000
2287 14633 1 0.16500 119244.000000
2288 11799 1 0.16500 119244.000000
2288 14077 1 0.16500 119244.000000
2289 11799 1 0.16500 119244.000000
2289 12408 1 0.16500 119244.000000
2290 11799 1 0.16500 119244.000000
2290 14569 1 0.16500 119244.000000
2291 11800 1 0.16500 119244.000000
2291 16141 1 0.16500 119244.000000
2292 11800 1 0.16500 119244.000000
2292 14275 1 0.16500 119244.000000
2293 11800 1 0.16500 119244.000000
2293 14381 1 0.16500 119244.000000
2294 11800 1 0.16500 119244.000000
2294 12018 1 0.16500 119244.000000
2295 15083 1 0.16500 119244.000000
2295 22585 1 0.16500 119244.000000
2296 12524 1 0.16500 119244.000000
2296 21193 1 0.16500 119244.000000
2297 21193 1 0.16500 119244.000000
2297 23803 1 0.16500 119244.000000
2298 17613 1 0.16500 119244.000000
2298 21193 1 0.16500 119244.000000
2299 13554 1 0.16500 119244.000000
2299 16675 1 0.16500 119244.000000
2300 11801 1 0.16500 119244.000000
2300 15949 1 0.16500 119244.000000
2301 11801 1 0.16500 119244.000000
2301 14687 1 0.16500 119244.000000
2302 11801 1 0.16500 119244.000000
2302 12001 1 0.16500 119244.000000
2303 11801 1 0.16500 119244.000000
2303 13638 1 0.16500 119244.000000
2304 13529 1 0.16500 119244.000000
2304 19189 1 0.16500 119244.000000
2305 11802 1 0.16500 119244.000000
2305 15857 1 0.16500 119244.000000
2306 11802 1 0.16500 119244.000000
2306 13846 1 0.16500 119244.000000
2307 11802 1 0.16500 119244.000000
2307 12920 1 0.16500 119244.000000
2308 11802 1 0.16500 119244.000000
2308 15493 1 0.16500 119244.000000
2309 11803 1 0.16500 119244.000000
2309 12300 1 0.16500 119244.000000
2310 11803 1 0.16500 119244.000000
2310 15244 1 0.16500 119244.000000
2311 11803 1 0.16500 119244.000000
2311 14885 1 0.16500 119244.000000
2312 11803 1 0.16500 119244.000000
2312 15334 1 0.16500 119244.000000
2313 11804 1 0.16500 119244.000000
2313 24280 1 0.16500 119244.000000
2314 11804 1 0.16500 119244.000000
2314 13170 1 0.16500 119244.000000
2315 11804 1 0.16500 119244.000000
2315 13508 1 0.16500 119244.000000
2316 11804 1 0.16500 119244.000000
2316 14934 1 0.16500 119244.000000
2317 11805 1 0.16500 119244.000000
2317 15877 1 0.16500 119244.000000
2318 11805 1 0.16500 119244.000000
2318 15901 1 0.16500 119244.000000
2319 11805 1 0.16500 119244.000000
2319 13194 1 0.16500 119244.000000
2320 11805 1 0.16500 119244.000000
2320 12497 1 0.16500 119244.000000
2321 11806 1 0.16500 119244.000000
2321 13934 1 0.16500 119244.000000
2322 11806 1 0.16500 119244.000000
2322 14508 1 0.16500 119244.000000
2323 11806 1 0.16500 119244.000000
2323 15027 1 0.16500 119244.000000
2324 17403 1 0.16500 119244.000000
2324 23794 1 0.16500 119244.000000
2325 14644 1 0.16500 119244.000000
2325 17403 1 0.16500 119244.000000
2326 11807 1 0.16500 119244.000000
2326 13243 1 0.16500 119244.000000
2327 11807 1 0.16500 119244.000000
2327 19513 1 0.16500 119244.000000
2328 11807 1 0.16500 119244.000000
2328 11856 1 0.16500 119244.000000
2329 11807 1 0.16500 119244.000000
2329 13695 1 0.16500 119244.000000
2330 11808 1 0.16500 119244.000000
2330 14333 1 0.16500 119244.000000
2331 11808 1 0.16500 119244.000000
2331 16135 1 0.16500 119244.000000
2332 13552 1 0.16500 119244.000000
2332 14333 1 0.16500 119244.000000
2333 11809 1 0.16500 119244.000000
2333 12211 1 0.16500 119244.000000
2334 11809 1 0.16500 119244.000000
2334 12053 1 0.16500 119244.000000
2335 11809 1 0.16500 119244.000000
2335 14086 1 0.16500 119244.000000
2336 11809 1 0.16500 119244.000000
2336 14500 1 0.16500 119244.000000
2337 14677 1 0.16500 119244.000000
2337 15093 1 0.16500 119244.000000
2338 11637 1 0.16500 119244.000000
2338 11810 1 0.16500 119244.000000
2339 15093 1 0.16500 119244.000000
2339 15865 1 0.16500 119244.000000
2340 11810 1 0.16500 119244.000000
2340 15093 1 0.16500 119244.000000
2341 11811 1 0.16500 119244.000000
2341 14857 1 0.16500 119244.000000
2342 12277 1 0.16500 119244.000000
2342 14335 1 0.16500 119244.000000
2343 11811 1 0.16500 119244.000000
2343 14335 1 0.16500 119244.000000
2344 11812 1 0.16500 119244.000000
2344 12400 1 0.16500 119244.000000
2345 11812 1 0.16500 119244.000000
2345 13037 1 0.16500 119244.000000
2346 11812 1 0.16500 119244.000000
2346 15814 1 0.16500 119244.000000
2347 11812 1 0.16500 119244.000000
2347 14858 1 0.16500 119244.000000
2348 11813 1 0.16500 119244.000000
2348 13225 1 0.16500 119244.000000
2349 11813 1 0.16500 119244.000000
2349 15659 1 0.16500 119244.000000
2350 11814 1 0.16500 119244.000000
2350 12746 1 0.16500 119244.000000
2351 11814 1 0.16500 119244.000000
2351 14074 1 0.16500 119244.000000
2352 12746 1 0.16500 119244.000000
2352 15175 1 0.16500 119244.000000
2353 11814 1 0.16500 119244.000000
2353 15075 1 0.16500 119244.000000
2354 11815 1 0.16500 119244.000000
2354 15729 1 0.16500 119244.000000
2355 11815 1 0.16500 119244.000000
2355 15892 1 0.16500 119244.000000
2356 11815 1 0.16500 119244.000000
2356 12679 1 0.16500 119244.000000
2357 11815 1 0.16500 119244.000000
2357 13447 1 0.16500 119244.000000
2358 11816 1 0.16500 119244.000000
2358 12881 1 0.16500 119244.000000
2359 11816 1 0.16500 119244.000000
2359 13855 1 0.16500 119244.000000
2360 11816 1 0.16500 119244.000000
2360 14007 1 0.16500 119244.000000
2361 11816 1 0.16500 119244.000000
2361 14446 1 0.16500 119244.000000
2362 11817 1 0.16500 119244.000000
2362 13170 1 0.16500 119244.000000
2363 11817 1 0.16500 119244.000000
2363 14488 1 0.16500 119244.000000
2364 11817 1 0.16500 119244.000000
2364 14540 1 0.16500 119244.000000
2365 11817 1 0.16500 119244.000000
2365 12102 1 0.16500 119244.000000
2366 11818 1 0.16500 119244.000000
2366 13324 1 0.16500 119244.000000
2367 11818 1 0.16500 119244.000000
2367 14999 1 0.16500 119244.000000
2368 11818 1 0.16500 119244.000000
2368 13420 1 0.16500 119244.000000
2369 11818 1 0.16500 119244.000000
2369 13170 1 0.16500 119244.000000
2370 11819 1 0.16500 119244.000000
2370 14604 1 0.16500 119244.000000
2371 11819 1 0.16500 119244.000000
2371 14220 1 0.16500 119244.000000
2372 11819 1 0.16500 119244.000000
2372 13049 1 0.16500 119244.000000
2373 11819 1 0.16500 119244.000000
2373 15538 1 0.16500 119244.000000
2374 11820 1 0.16500 119244.000000
2374 14570 1 0.16500 119244.000000
2375 11820 1 0.16500 119244.000000
2375 12375 1 0.16500 119244.000000
2376 11820 1 0.16500 119244.000000
2376 14573 1 0.16500 119244.000000
2377 11820 1 0.16500 119244.000000
2377 13526 1 0.16500 119244.000000
2378 11821 1 0.16500 119244.000000
2378 11825 1 0.16500 119244.000000
2379 11821 1 0.16500 119244.000000
2379 14030 1 0.16500 119244.000000
2380 11821 1 0.16500 119244.000000
2380 13033 1 0.16500 119244.000000
2381 11821 1 0.16500 119244.000000
2381 13083 1 0.16500 119244.000000
2382 11822 1 0.16500 119244.000000
2382 14458 1 0.16500 119244.000000
2383 11822 1 0.16500 119244.000000
2383 14080 1 0.16500 119244.000000
2384 11822 1 0.16500 119244.000000
2384 15972 1 0.16500 119244.000000
2385 11822 1 0.16500 119244.000000
2385 12828 1 0.16500 119244.000000
2386 11823 1 0.16500 119244.000000
2386 14660 1 0.16500 119244.000000
2387 11823 1 0.16500 119244.000000
2387 13884 1 0.16500 119244.000000
2388 11823 1 0.16500 119244.000000
2388 12661 1 0.16500 119244.000000
2389 11823 1 0.16500 119244.000000
2389 16253 1 0.16500 119244.000000
2390 11824 1 0.16500 119244.000000
2390 15386 1 0.16500 119244.000000
2391 11824 1 0.16500 119244.000000
2391 13929 1 0.16500 119244.000000
2392 11824 1 0.16500 119244.000000
2392 14873 1 0.16500 119244.000000
2393 11824 1 0.16500 119244.000000
2393 14604 1 0.16500 119244.000000
2394 11825 1 0.16500 119244.000000
2394 12856 1 0.16500 119244.000000
2395 11825 1 0.16500 119244.000000
2395 16121 1 0.16500 119244.000000
2396 11825 1 0.16500 119244.000000
2396 12020 1 0.16500 119244.000000
2397 15578 1 0.16500 119244.000000
2397 16121 1 0.16500 119244.000000
2398 11826 1 0.16500 119244.000000
2398 15648 1 0.16500 119244.000000
2399 11826 1 0.16500 119244.000000
2399 14933 1 0.16500 119244.000000
2400 11826 1 0.16500 119244.000000
2400 11864 1 0.16500 119244.000000
2401 13815 1 0.16500 119244.000000
2401 15648 1 0.16500 119244.000000
2402 11827 1 0.16500 119244.000000
2402 15734 1 0.16500 119244.000000
2403 11827 1 0.16500 119244.000000
2403 14562 1 0.16500 119244.000000
2404 11827 1 0.16500 119244.000000
2404 12022 1 0.16500 119244.000000
2405 11827 1 0.16500 119244.000000
2405 12531 1 0.16500 119244.000000
2406 11828 1 0.16500 119244.000000
2406 16103 1 0.16500 119244.000000
2407 11828 1 0.16500 119244.000000
2407 15498 1 0.16500 119244.000000
2408 11828 1 0.16500 119244.000000
2408 13084 1 0.16500 119244.000000
2409 11828 1 0.16500 119244.000000
2409 15712 1 0.16500 119244.000000
2410 11829 1 0.16500 119244.000000
2410 13232 1 0.16500 119244.000000
2411 11829 1 0.16500 119244.000000
2411 15534 1 0.16500 119244.000000
2412 11829 1 0.16500 119244.000000
2412 13678 1 0.16500 119244.000000
2413 11830 1 0.16500 119244.000000
2413 16201 1 0.16500 119244.000000
2414 11830 1 0.16500 119244.000000
2414 15000 1 0.16500 119244.000000
2415 11830 1 0.16500 119244.000000
2415 14861 1 0.16500 119244.000000
2416 11830 1 0.16500 119244.000000
2416 14594 1 0.16500 119244.000000
2417 11831 1 0.16500 119244.000000
2417 12757 1 0.16500 119244.000000
2418 11831 1 0.16500 119244.000000
2418 15165 1 0.16500 119244.000000
2419 11831 1 0.16500 119244.000000
2419 22621 1 0.16500 119244.000000
2420 11831 1 0.16500 119244.000000
2420 12833 1 0.16500 119244.000000
2421 11832 1 0.16500 119244.000000
2421 17431 1 0.16500 119244.000000
2422 11832 1 0.16500 119244.000000
2422 13726 1 0.16500 119244.000000
2423 11832 1 0.16500 119244.000000
2423 13877 1 0.16500 119244.000000
2424 11832 1 0.16500 119244.000000
2424 15273 1 0.16500 119244.000000
2425 11833 1 0.16500 119244.000000
2425 14327 1 0.16500 119244.000000
2426 11833 1 0.16500 119244.000000
2426 12505 1 0.16500 119244.000000
2427 11833 1 0.16500 119244.000000
2427 15341 1 0.16500 119244.000000
2428 11833 1 0.16500 119244.000000
2428 11898 1 0.16500 119244.000000
2429 19561 1 0.16500 119244.000000
2429 23686 1 0.16500 119244.000000
2430 15758 1 0.16500 119244.000000
2430 23686 1 0.16500 119244.000000
2431 22681 1 0.16500 119244.000000
2431 23689 1 0.16500 119244.000000
2432 11334 1 0.16500 119244.000000
2432 23929 1 0.16500 119244.000000
2433 23689 1 0.16500 119244.000000
2433 23929 1 0.16500 119244.000000
2434 11834 1 0.16500 119244.000000
2434 14291 1 0.16500 119244.000000
2435 11834 1 0.16500 119244.000000
2435 15974 1 0.16500 119244.000000
2436 11834 1 0.16500 119244.000000
2436 12147 1 0.16500 119244.000000
2437 11834 1 0.16500 119244.000000
2437 15908 1 0.16500 119244.000000
2438 11835 1 0.16500 119244.000000
2438 14062 1 0.16500 119244.000000
2439 11835 1 0.16500 119244.000000
2439 14947 1 0.16500 119244.000000
2440 11835 1 0.16500 119244.000000
2440 14630 1 0.16500 119244.000000
2441 11835 1 0.16500 119244.000000
2441 13663 1 0.16500 119244.000000
2442 11299 1 0.16500 119244.000000
2442 11836 1 0.16500 119244.000000
2443 11836 1 0.16500 119244.000000
2443 18145 1 0.16500 119244.000000
2444 11836 1 0.16500 119244.000000
2444 13028 1 0.16500 119244.000000
2445 11836 1 0.16500 119244.000000
2445 23974 1 0.16500 119244.000000
2446 11837 1 0.16500 119244.000000
2446 12133 1 0.16500 119244.000000
2447 11837 1 0.16500 119244.000000
2447 12494 1 0.16500 119244.000000
2448 11837 1 0.16500 119244.000000
2448 14256 1 0.16500 119244.000000
2449 11837 1 0.16500 119244.000000
2449 13615 1 0.16500 119244.000000
2450 14411 1 0.16500 119244.000000
2450 23692 1 0.16500 119244.000000
2451 21709 1 0.16500 119244.000000
2451 23692 1 0.16500 119244.000000
2452 23692 1 0.16500 119244.000000
2452 24268 1 0.16500 119244.000000
2453 11838 1 0.16500 119244.000000
2453 12296 1 0.16500 119244.000000
2454 11838 1 0.16500 119244.000000
2454 12420 1 0.16500 119244.000000
2455 11838 1 0.16500 119244.000000
2455 19009 1 0.16500 119244.000000
2456 15847 1 0.16500 119244.000000
2456 24322 1 0.16500 119244.000000
2457 15907 1 0.16500 119244.000000
2457 24322 1 0.16500 119244.000000
2458 11839 1 0.16500 119244.000000
2458 14444 1 0.16500 119244.000000
2459 11839 1 0.16500 119244.000000
2459 14989 1 0.16500 119244.000000
2460 11839 1 0.16500 119244.000000
2460 12100 1 0.16500 119244.000000
2461 11839 1 0.16500 119244.000000
2461 15963 1 0.16500 119244.000000
2462 15962 1 0.16500 119244.000000
2462 24327 1 0.16500 119244.000000
2463 12307 1 0.16500 119244.000000
2463 24327 1 0.16500 119244.000000
2464 11840 1 0.16500 119244.000000
2464 13308 1 0.16500 119244.000000
2465 11840 1 0.16500 119244.000000
2465 13624 1 0.16500 119244.000000
2466 11840 1 0.16500 119244.000000
2466 16119 1 0.16500 119244.000000
2467 11840 1 0.16500 119244.000000
2467 13400 1 0.16500 119244.000000
2468 11841 1 0.16500 119244.000000
2468 11855 1 0.16500 119244.000000
2469 11841 1 0.16500 119244.000000
2469 24049 1 0.16500 119244.000000
2470 11841 1 0.16500 119244.000000
2470 13180 1 0.16500 119244.000000
2471 11841 1 0.16500 119244.000000
2471 14691 1 0.16500 119244.000000
2472 11842 1 0.16500 119244.000000
2472 14966 1 0.16500 119244.000000
2473 11842 1 0.16500 119244.000000
2473 14199 1 0.16500 119244.000000
2474 11842 1 0.16500 119244.000000
2474 14890 1 0.16500 119244.000000
2475 11842 1 0.16500 119244.000000
2475 12703 1 0.16500 119244.000000
2476 11843 1 0.16500 119244.000000
2476 15349 1 0.16500 119244.000000
2477 11843 1 0.16500 119244.000000
2477 16129 1 0.16500 119244.000000
2478 11843 1 0.16500 119244.000000
2478 15133 1 0.16500 119244.000000
2479 12198 1 0.16500 119244.000000
2479 16129 1 0.16500 119244.000000
2480 11844 1 0.16500 119244.000000
2480 12781 1 0.16500 119244.000000
2481 11844 1 0.16500 119244.000000
2481 15924 1 0.16500 119244.000000
2482 11844 1 0.16500 119244.000000
2482 12472 1 0.16500 119244.000000
2483 12383 1 0.16500 119244.000000
2483 22597 1 0.16500 119244.000000
2484 13654 1 0.16500 119244.000000
2484 22597 1 0.16500 119244.000000
2485 14360 1 0.16500 119244.000000
2485 22597 1 0.16500 119244.000000
2486 11845 1 0.16500 119244.000000
2486 15256 1 0.16500 119244.000000
2487 11845 1 0.16500 119244.000000
2487 12386 1 0.16500 119244.000000
2488 11845 1 0.16500 119244.000000
2488 11977 1 0.16500 119244.000000
2489 11845 1 0.16500 119244.000000
2489 14123 1 0.16500 119244.000000
2490 23767 1 0.16500 119244.000000
2490 24208 1 0.16500 119244.000000
2491 14769 1 0.16500 119244.000000
2491 15469 1 0.16500 119244.000000
2492 14769 1 0.16500 119244.000000
2492 23767 1 0.16500 119244.000000
2493 22945 1 0.16500 119244.000000
2493 23695 1 0.16500 119244.000000
2494 23569 1 0.16500 119244.000000
2494 23695 1 0.16500 119244.000000
2495 13053 1 0.16500 119244.000000
2495 23695 1 0.16500 119244.000000
2496 11846 1 0.16500 119244.000000
2496 11878 1 0.16500 119244.000000
2497 11846 1 0.16500 119244.000000
2497 12455 1 0.16500 119244.000000
2498 11846 1 0.16500 119244.000000
2498 17641 1 0.16500 119244.000000
2499 11846 1 0.16500 119244.000000
2499 14579 1 0.16500 119244.000000
2500 17739 1 0.16500 119244.000000
2500 20005 1 0.16500 119244.000000
2501 13392 1 0.16500 119244.000000
2501 17739 1 0.16500 119244.000000
2502 11847 1 0.16500 119244.000000
2502 14635 1 0.16500 119244.000000
2503 11847 1 0.16500 119244.000000
2503 14182 1 0.16500 119244.000000
2504 11847 1 0.16500 119244.000000
2504 11981 1 0.16500 119244.000000
2505 14128 1 0.16500 119244.000000
2505 20821 1 0.16500 119244.000000
2506 20821 1 0.16500 119244.000000
2506 23716 1 0.16500 119244.000000
2507 14128 1 0.16500 119244.000000
2507 15480 1 0.16500 119244.000000
2508 11848 1 0.16500 119244.000000
2508 14284 1 0.16500 119244.000000
2509 11848 1 0.16500 119244.000000
2509 15340 1 0.16500 119244.000000
2510 11848 1 0.16500 119244.000000
2510 13174 1 0.16500 119244.000000
2511 11848 1 0.16500 119244.000000
2511 16046 1 0.16500 119244.000000
2512 11849 1 0.16500 119244.000000
2512 13836 1 0.16500 119244.000000
2513 11849 1 0.16500 119244.000000
2513 12092 1 0.16500 119244.000000
2514 11849 1 0.16500 119244.000000
2514 12646 1 0.16500 119244.000000
2515 11849 1 0.16500 119244.000000
2515 13026 1 0.16500 119244.000000
2516 11850 1 0.16500 119244.000000
2516 15422 1 0.16500 119244.000000
2517 11850 1 0.16500 119244.000000
2517 24362 1 0.16500 119244.000000
2518 11850 1 0.16500 119244.000000
2518 15730 1 0.16500 119244.000000
2519 11850 1 0.16500 119244.000000
2519 15636 1 0.16500 119244.000000
2520 11851 1 0.16500 119244.000000
2520 16048 1 0.16500 119244.000000
2521 11851 1 0.16500 119244.000000
2521 13754 1 0.16500 119244.000000
2522 11851 1 0.16500 119244.000000
2522 15883 1 0.16500 119244.000000
2523 11851 1 0.16500 119244.000000
2523 15553 1 0.16500 119244.000000
2524 11852 1 0.16500 119244.000000
2524 12180 1 0.16500 119244.000000
2525 11852 1 0.16500 119244.000000
2525 14115 1 0.16500 119244.000000
2526 11852 1 0.16500 119244.000000
2526 12239 1 0.16500 119244.000000
2527 11852 1 0.16500 119244.000000
2527 12668 1 0.16500 119244.000000
2528 11853 1 0.16500 119244.000000
2528 14896 1 0.16500 119244.000000
2529 11853 1 0.16500 119244.000000
2529 12365 1 0.16500 119244.000000
2530 11853 1 0.16500 119244.000000
2530 13843 1 0.16500 119244.000000
2531 11853 1 0.16500 119244.000000
2531 12258 1 0.16500 119244.000000
2532 11854 1 0.16500 119244.000000
2532 14854 1 0.16500 119244.000000
2533 11854 1 0.16500 119244.000000
2533 14249 1 0.16500 119244.000000
2534 11854 1 0.16500 119244.000000
2534 14000 1 0.16500 119244.000000
2535 11854 1 0.16500 119244.000000
2535 14842 1 0.16500 119244.000000
2536 11855 1 0.16500 119244.000000
2536 15717 1 0.16500 119244.000000
2537 11855 1 0.16500 119244.000000
2537 15383 1 0.16500 119244.000000
2538 11855 1 0.16500 119244.000000
2538 16085 1 0.16500 119244.000000
2539 11856 1 0.16500 119244.000000
2539 15801 1 0.16500 119244.000000
2540 11856 1 0.16500 119244.000000
2540 18285 1 0.16500 119244.000000
2541 11856 1 0.16500 119244.000000
2541 13378 1 0.16500 119244.000000
2542 11857 1 0.16500 119244.000000
2542 12429 1 0.16500 119244.000000
2543 11857 1 0.16500 119244.000000
2543 15023 1 0.16500 119244.000000
2544 11857 1 0.16500 119244.000000
2544 15098 1 0.16500 119244.000000
2545 11858 1 0.16500 119244.000000
2545 14145 1 0.16500 119244.000000
2546 11858 1 0.16500 119244.000000
2546 15560 1 0.16500 119244.000000
2547 11858 1 0.16500 119244.000000
2547 13366 1 0.16500 119244.000000
2548 11858 1 0.16500 119244.000000
2548 15440 1 0.16500 119244.000000
2549 11859 1 0.16500 119244.000000
2549 14542 1 0.16500 119244.000000
2550 11859 1 0.16500 119244.000000
2550 11942 1 0.16500 119244.000000
2551 11859 1 0.16500 119244.000000
2551 13213 1 0.16500 119244.000000
2552 11859 1 0.16500 119244.000000
2552 14775 1 0.16500 119244.000000
2553 11860 1 0.16500 119244.000000
2553 13098 1 0.16500 119244.000000
2554 11860 1 0.16500 119244.000000
2554 13146 1 0.16500 119244.000000
2555 11860 1 0.16500 119244.000000
2555 14712 1 0.16500 119244.000000
2556 11860 1 0.16500 119244.000000
2556 16189 1 0.16500 119244.000000
2557 16034 1 0.16500 119244.000000
2557 23413 1 0.16500 119244.000000
2558 15358 1 0.16500 119244.000000
2558 22285 1 0.16500 119244.000000
2559 22285 1 0.16500 119244.000000
2559 23545 1 0.16500 119244.000000
2560 22285 1 0.16500 119244.000000
2560 23413 1 0.16500 119244.000000
2561 11861 1 0.16500 119244.000000
2561 12440 1 0.16500 119244.000000
2562 11861 1 0.16500 119244.000000
2562 13369 1 0.16500 119244.000000
2563 11861 1 0.16500 119244.000000
2563 13049 1 0.16500 119244.000000
2564 11862 1 0.16500 119244.000000
2564 15864 1 0.16500 119244.000000
2565 11862 1 0.16500 119244.000000
2565 12465 1 0.16500 119244.000000
2566 11862 1 0.16500 119244.000000
2566 14640 1 0.16500 119244.000000
2567 11863 1 0.16500 119244.000000
2567 13305 1 0.16500 119244.000000
2568 11863 1 0.16500 119244.000000
2568 22117 1 0.16500 119244.000000
2569 11863 1 0.16500 119244.000000
2569 24184 1 0.16500 119244.000000
2570 11863 1 0.16500 119244.000000
2570 14318 1 0.16500 119244.000000
2571 11864 1 0.16500 119244.000000
2571 15342 1 0.16500 119244.000000
2572 11864 1 0.16500 119244.000000
2572 12179 1 0.16500 119244.000000
2573 12179 1 0.16500 119244.000000
2573 14793 1 0.16500 119244.000000
2574 11431 1 0.16500 119244.000000
2574 11865 1 0.16500 119244.000000
2575 11865 1 0.16500 119244.000000
2575 13133 1 0.16500 119244.000000
2576 11865 1 0.16500 119244.000000
2576 13538 1 0.16500 119244.000000
2577 11865 1 0.16500 119244.000000
2577 12707 1 0.16500 119244.000000
2578 11866 1 0.16500 119244.000000
2578 14913 1 0.16500 119244.000000
2579 11866 1 0.16500 119244.000000
2579 14024 1 0.16500 119244.000000
2580 11866 1 0.16500 119244.000000
2580 13395 1 0.16500 119244.000000
2581 13620 1 0.16500 119244.000000
2581 23698 1 0.16500 119244.000000
2582 14784 1 0.16500 119244.000000
2582 23698 1 0.16500 119244.000000
2583 11896 1 0.16500 119244.000000
2583 14983 1 0.16500 119244.000000
2584 11867 1 0.16500 119244.000000
2584 23173 1 0.16500 119244.000000
2585 11867 1 0.16500 119244.000000
2585 14983 1 0.16500 119244.000000
2586 11867 1 0.16500 119244.000000
2586 12835 1 0.16500 119244.000000
2587 17347 1 0.16500 119244.000000
2587 21145 1 0.16500 119244.000000
2588 15182 1 0.16500 119244.000000
2588 17347 1 0.16500 119244.000000
2589 13363 1 0.16500 119244.000000
2589 23701 1 0.16500 119244.000000
2590 12306 1 0.16500 119244.000000
2590 23701 1 0.16500 119244.000000
2591 17431 1 0.16500 119244.000000
2591 23701 1 0.16500 119244.000000
2592 11868 1 0.16500 119244.000000
2592 12593 1 0.16500 119244.000000
2593 11868 1 0.16500 119244.000000
2593 14208 1 0.16500 119244.000000
2594 11868 1 0.16500 119244.000000
2594 12457 1 0.16500 119244.000000
2595 11869 1 0.16500 119244.000000
2595 16158 1 0.16500 119244.000000
2596 11869 1 0.16500 119244.000000
2596 14494 1 0.16500 119244.000000
2597 11869 1 0.16500 119244.000000
2597 11987 1 0.16500 119244.000000
2598 11870 1 0.16500 119244.000000
2598 16170 1 0.16500 119244.000000
2599 11870 1 0.16500 119244.000000
2599 15736 1 0.16500 119244.000000
2600 11870 1 0.16500 119244.000000
2600 13133 1 0.16500 119244.000000
2601 11870 1 0.16500 119244.000000
2601 12550 1 0.16500 119244.000000
2602 15659 1 0.16500 119244.000000
2602 23704 1 0.16500 119244.000000
2603 14513 1 0.16500 119244.000000
2603 23704 1 0.16500 119244.000000
2604 11871 1 0.16500 119244.000000
2604 18985 1 0.16500 119244.000000
2605 17459 1 0.16500 119244.000000
2605 18985 1 0.16500 119244.000000
2606 11872 1 0.16500 119244.000000
2606 16217 1 0.16500 119244.000000
2607 14521 1 0.16500 119244.000000
2607 16217 1 0.16500 119244.000000
2608 11872 1 0.16500 119244.000000
2608 16137 1 0.16500 119244.000000
2609 11872 1 0.16500 119244.000000
2609 15406 1 0.16500 119244.000000
2610 11873 1 0.16500 119244.000000
2610 15935 1 0.16500 119244.000000
2611 11873 1 0.16500 119244.000000
2611 12797 1 0.16500 119244.000000
2612 11873 1 0.16500 119244.000000
2612 13612 1 0.16500 119244.000000
2613 11874 1 0.16500 119244.000000
2613 12447 1 0.16500 119244.000000
2614 11874 1 0.16500 119244.000000
2614 12410 1 0.16500 119244.000000
2615 11874 1 0.16500 119244.000000
2615 12971 1 0.16500 119244.000000
2616 11875 1 0.16500 119244.000000
2616 12931 1 0.16500 119244.000000
2617 11875 1 0.16500 119244.000000
2617 13185 1 0.16500 119244.000000
2618 11875 1 0.16500 119244.000000
2618 14238 1 0.16500 119244.000000
2619 11876 1 0.16500 119244.000000
2619 16093 1 0.16500 119244.000000
2620 11876 1 0.16500 119244.000000
2620 19633 1 0.16500 119244.000000
2621 11876 1 0.16500 119244.000000
2621 15781 1 0.16500 119244.000000
2622 11876 1 0.16500 119244.000000
2622 13913 1 0.16500 119244.000000
2623 11958 1 0.16500 119244.000000
2623 23707 1 0.16500 119244.000000
2624 23707 1 0.16500 119244.000000
2624 24457 1 0.16500 119244.000000
2625 12684 1 0.16500 119244.000000
2625 13101 1 0.16500 119244.000000
2626 11877 1 0.16500 119244.000000
2626 14933 1 0.16500 119244.000000
2627 11877 1 0.16500 119244.000000
2627 13101 1 0.16500 119244.000000
2628 11877 1 0.16500 119244.000000
2628 13067 1 0.16500 119244.000000
2629 11878 1 0.16500 119244.000000
2629 15605 1 0.16500 119244.000000
2630 11878 1 0.16500 119244.000000
2630 14908 1 0.16500 119244.000000
2631 11878 1 0.16500 119244.000000
2631 12866 1 0.16500 119244.000000
2632 11879 1 0.16500 119244.000000
2632 15650 1 0.16500 119244.000000
2633 11879 1 0.16500 119244.000000
2633 23803 1 0.16500 119244.000000
2634 11879 1 0.16500 119244.000000
2634 16131 1 0.16500 119244.000000
2635 11879 1 0.16500 119244.000000
2635 15412 1 0.16500 119244.000000
2636 11880 1 0.16500 119244.000000
2636 15479 1 0.16500 119244.000000
2637 11880 1 0.16500 119244.000000
2637 13171 1 0.16500 119244.000000
2638 11880 1 0.16500 119244.000000
2638 15023 1 0.16500 119244.000000
2639 11880 1 0.16500 119244.000000
2639 15668 1 0.16500 119244.000000
2640 11881 1 0.16500 119244.000000
2640 13123 1 0.16500 119244.000000
2641 11881 1 0.16500 119244.000000
2641 15470 1 0.16500 119244.000000
2642 11881 1 0.16500 119244.000000
2642 13549 1 0.16500 119244.000000
2643 11881 1 0.16500 119244.000000
2643 13085 1 0.16500 119244.000000
2644 11882 1 0.16500 119244.000000
2644 16265 1 0.16500 119244.000000
2645 11882 1 0.16500 119244.000000
2645 13163 1 0.16500 119244.000000
2646 11882 1 0.16500 119244.000000
2646 12474 1 0.16500 119244.000000
2647 11883 1 0.16500 119244.000000
2647 13202 1 0.16500 119244.000000
2648 11883 1 0.16500 119244.000000
2648 16075 1 0.16500 119244.000000
2649 15436 1 0.16500 119244.000000
2649 16075 1 0.16500 119244.000000
2650 11883 1 0.16500 119244.000000
2650 14033 1 0.16500 119244.000000
2651 20437 1 0.16500 119244.000000
2651 23923 1 0.16500 119244.000000
2652 20437 1 0.16500 119244.000000
2652 24304 1 0.16500 119244.000000
2653 16212 1 0.16500 119244.000000
2653 20437 1 0.16500 119244.000000
2654 11884 1 0.16500 119244.000000
2654 13322 1 0.16500 119244.000000
2655 11884 1 0.16500 119244.000000
2655 13919 1 0.16500 119244.000000
2656 11884 1 0.16500 119244.000000
2656 14562 1 0.16500 119244.000000
2657 11884 1 0.16500 119244.000000
2657 16166 1 0.16500 119244.000000
2658 11885 1 0.16500 119244.000000
2658 14620 1 0.16500 119244.000000
2659 11885 1 0.16500 119244.000000
2659 12011 1 0.16500 119244.000000
2660 11886 1 0.16500 119244.000000
2660 13189 1 0.16500 119244.000000
2661 11886 1 0.16500 119244.000000
2661 13159 1 0.16500 119244.000000
2662 11886 1 0.16500 119244.000000
2662 13451 1 0.16500 119244.000000
2663 11886 1 0.16500 119244.000000
2663 16260 1 0.16500 119244.000000
2664 11887 1 0.16500 119244.000000
2664 14218 1 0.16500 119244.000000
2665 11887 1 0.16500 119244.000000
2665 13637 1 0.16500 119244.000000
2666 11888 1 0.16500 119244.000000
2666 14044 1 0.16500 119244.000000
2667 11888 1 0.16500 119244.000000
2667 24109 1 0.16500 119244.000000
2668 11889 1 0.16500 119244.000000
2668 14284 1 0.16500 119244.000000
2669 11889 1 0.16500 119244.000000
2669 14198 1 0.16500 119244.000000
2670 11889 1 0.16500 119244.000000
2670 12676 1 0.16500 119244.000000
2671 11889 1 0.16500 119244.000000
2671 12095 1 0.16500 119244.000000
2672 11890 1 0.16500 119244.000000
2672 13018 1 0.16500 119244.000000
2673 11890 1 0.16500 119244.000000
2673 13187 1 0.16500 119244.000000
2674 11890 1 0.16500 119244.000000
2674 13927 1 0.16500 119244.000000
2675 11890 1 0.16500 119244.000000
2675 11999 1 0.16500 119244.000000
2676 11891 1 0.16500 119244.000000
2676 12506 1 0.16500 119244.000000
2677 11891 1 0.16500 119244.000000
2677 14803 1 0.16500 119244.000000
2678 11891 1 0.16500 119244.000000
2678 15952 1 0.16500 119244.000000
2679 11891 1 0.16500 119244.000000
2679 13713 1 0.16500 119244.000000
2680 11892 1 0.16500 119244.000000
2680 13204 1 0.16500 119244.000000
2681 11892 1 0.16500 119244.000000
2681 13286 1 0.16500 119244.000000
2682 11892 1 0.16500 119244.000000
2682 15467 1 0.16500 119244.000000
2683 14424 1 0.16500 119244.000000
2683 15467 1 0.16500 119244.000000
2684 11893 1 0.16500 119244.000000
2684 21061 1 0.16500 119244.000000
2685 11893 1 0.16500 119244.000000
2685 12449 1 0.16500 119244.000000
2686 11893 1 0.16500 119244.000000
2686 13011 1 0.16500 119244.000000
2687 11893 1 0.16500 119244.000000
2687 15841 1 0.16500 119244.000000
2688 11894 1 0.16500 119244.000000
2688 15434 1 0.16500 119244.000000
2689 11894 1 0.16500 119244.000000
2689 15466 1 0.16500 119244.000000
2690 11894 1 0.16500 119244.000000
2690 23923 1 0.16500 119244.000000
2691 11894 1 0.16500 119244.000000
2691 13664 1 0.16500 119244.000000
2692 11895 1 0.16500 119244.000000
2692 15053 1 0.16500 119244.000000
2693 11895 1 0.16500 119244.000000
2693 14003 1 0.16500 119244.000000
2694 11895 1 0.16500 119244.000000
2694 15995 1 0.16500 119244.000000
2695 11895 1 0.16500 119244.000000
2695 12658 1 0.16500 119244.000000
2696 13041 1 0.16500 119244.000000
2696 23710 1 0.16500 119244.000000
2697 12170 1 0.16500 119244.000000
2697 23710 1 0.16500 119244.000000
2698 14665 1 0.16500 119244.000000
2698 23710 1 0.16500 119244.000000
2699 11896 1 0.16500 119244.000000
2699 20965 1 0.16500 119244.000000
2700 11896 1 0.16500 119244.000000
2700 21397 1 0.16500 119244.000000
2701 11896 1 0.16500 119244.000000
2701 13343 1 0.16500 119244.000000
2702 11897 1 0.16500 119244.000000
2702 15433 1 0.16500 119244.000000
2703 11897 1 0.16500 119244.000000
2703 14072 1 0.16500 119244.000000
2704 11897 1 0.16500 119244.000000
2704 13324 1 0.16500 119244.000000
2705 11897 1 0.16500 119244.000000
2705 14025 1 0.16500 119244.000000
2706 11898 1 0.16500 119244.000000
2706 13044 1 0.16500 119244.000000
2707 11898 1 0.16500 119244.000000
2707 12049 1 0.16500 119244.000000
2708 11898 1 0.16500 119244.000000
2708 15907 1 0.16500 119244.000000
2709 11899 1 0.16500 119244.000000
2709 13020 1 0.16500 119244.000000
2710 11899 1 0.16500 119244.000000
2710 16024 1 0.16500 119244.000000
2711 11899 1 0.16500 119244.000000
2711 16054 1 0.16500 119244.000000
2712 11899 1 0.16500 119244.000000
2712 12906 1 0.16500 119244.000000
2713 11900 1 0.16500 119244.000000
2713 13581 1 0.16500 119244.000000
2714 11900 1 0.16500 119244.000000
2714 13345 1 0.16500 119244.000000
2715 11900 1 0.16500 119244.000000
2715 12274 1 0.16500 119244.000000
2716 11900 1 0.16500 119244.000000
2716 23833 1 0.16500 119244.000000
2717 11901 1 0.16500 119244.000000
2717 16165 1 0.16500 119244.000000
2718 11901 1 0.16500 119244.000000
2718 14401 1 0.16500 119244.000000
2719 11901 1 0.16500 119244.000000
2719 12955 1 0.16500 119244.000000
2720 11901 1 0.16500 119244.000000
2720 14669 1 0.16500 119244.000000
2721 11902 1 0.16500 119244.000000
2721 16271 1 0.16500 119244.000000
2722 11902 1 0.16500 119244.000000
2722 14270 1 0.16500 119244.000000
2723 11902 1 0.16500 119244.000000
2723 12202 1 0.16500 119244.000000
2724 11902 1 0.16500 119244.000000
2724 15793 1 0.16500 119244.000000
2725 11903 1 0.16500 119244.000000
2725 16198 1 0.16500 119244.000000
2726 11903 1 0.16500 119244.000000
2726 13435 1 0.16500 119244.000000
2727 11903 1 0.16500 119244.000000
2727 15020 1 0.16500 119244.000000
2728 11903 1 0.16500 119244.000000
2728 13179 1 0.16500 119244.000000
2729 15315 1 0.16500 119244.000000
2729 20833 1 0.16500 119244.000000
2730 20833 1 0.16500 119244.000000
2730 23878 1 0.16500 119244.000000
2731 20833 1 0.16500 119244.000000
2731 21925 1 0.16500 119244.000000
2732 11904 1 0.16500 119244.000000
2732 19501 1 0.16500 119244.000000
2733 11904 1 0.16500 119244.000000
2733 24432 1 0.16500 119244.000000
2734 11904 1 0.16500 119244.000000
2734 14380 1 0.16500 119244.000000
2735 11905 1 0.16500 119244.000000
2735 12948 1 0.16500 119244.000000
2736 11905 1 0.16500 119244.000000
2736 13320 1 0.16500 119244.000000
2737 11905 1 0.16500 119244.000000
2737 15686 1 0.16500 119244.000000
2738 11906 1 0.16500 119244.000000
2738 12104 1 0.16500 119244.000000
2739 11906 1 0.16500 119244.000000
2739 13430 1 0.16500 119244.000000
2740 11906 1 0.16500 119244.000000
2740 14580 1 0.16500 119244.000000
2741 11906 1 0.16500 119244.000000
2741 14546 1 0.16500 119244.000000
2742 11907 1 0.16500 119244.000000
2742 15760 1 0.16500 119244.000000
2743 11907 1 0.16500 119244.000000
2743 16228 1 0.16500 119244.000000
2744 11907 1 0.16500 119244.000000
2744 15422 1 0.16500 119244.000000
2745 11907 1 0.16500 119244.000000
2745 12440 1 0.16500 119244.000000
2746 11908 1 0.16500 119244.000000
2746 18385 1 0.16500 119244.000000
2747 11908 1 0.16500 119244.000000
2747 24100 1 0.16500 119244.000000
2748 11908 1 0.16500 119244.000000
2748 21337 1 0.16500 119244.000000
2749 11909 1 0.16500 119244.000000
2749 12818 1 0.16500 119244.000000
2750 11909 1 0.16500 119244.000000
2750 14168 1 0.16500 119244.000000
2751 11909 1 0.16500 119244.000000
2751 15478 1 0.16500 119244.000000
2752 11909 1 0.16500 119244.000000
2752 12498 1 0.16500 119244.000000
2753 11910 1 0.16500 119244.000000
2753 13868 1 0.16500 119244.000000
2754 14365 1 0.16500 119244.000000
2754 15403 1 0.16500 119244.000000
2755 11910 1 0.16500 119244.000000
2755 14410 1 0.16500 119244.000000
2756 11910 1 0.16500 119244.000000
2756 14365 1 0.16500 119244.000000
2757 11911 1 0.16500 119244.000000
2757 12290 1 0.16500 119244.000000
2758 11911 1 0.16500 119244.000000
2758 12913 1 0.16500 119244.000000
2759 11911 1 0.16500 119244.000000
2759 13408 1 0.16500 119244.000000
2760 11911 1 0.16500 119244.000000
2760 13183 1 0.16500 119244.000000
2761 11912 1 0.16500 119244.000000
2761 14959 1 0.16500 119244.000000
2762 11912 1 0.16500 119244.000000
2762 14344 1 0.16500 119244.000000
2763 11912 1 0.16500 119244.000000
2763 13951 1 0.16500 119244.000000
2764 11913 1 0.16500 119244.000000
2764 12631 1 0.16500 119244.000000
2765 11913 1 0.16500 119244.000000
2765 15187 1 0.16500 119244.000000
2766 11913 1 0.16500 119244.000000
2766 13797 1 0.16500 119244.000000
2767 11913 1 0.16500 119244.000000
2767 14251 1 0.16500 119244.000000
2768 11914 1 0.16500 119244.000000
2768 15611 1 0.16500 119244.000000
2769 11914 1 0.16500 119244.000000
2769 15539 1 0.16500 119244.000000
2770 11914 1 0.16500 119244.000000
2770 11955 1 0.16500 119244.000000
2771 11915 1 0.16500 119244.000000
2771 16207 1 0.16500 119244.000000
2772 13471 1 0.16500 119244.000000
2772 13932 1 0.16500 119244.000000
2773 11915 1 0.16500 119244.000000
2773 13471 1 0.16500 119244.000000
2774 11915 1 0.16500 119244.000000
2774 14737 1 0.16500 119244.000000
2775 14726 1 0.16500 119244.000000
2775 24332 1 0.16500 119244.000000
2776 15242 1 0.16500 119244.000000
2776 24332 1 0.16500 119244.000000
2777 11916 1 0.16500 119244.000000
2777 15237 1 0.16500 119244.000000
2778 11916 1 0.16500 119244.000000
2778 12368 1 0.16500 119244.000000
2779 11916 1 0.16500 119244.000000
2779 15431 1 0.16500 119244.000000
2780 11917 1 0.16500 119244.000000
2780 17123 1 0.16500 119244.000000
2781 11917 1 0.16500 119244.000000
2781 13141 1 0.16500 119244.000000
2782 11917 1 0.16500 119244.000000
2782 14163 1 0.16500 119244.000000
2783 11917 1 0.16500 119244.000000
2783 14258 1 0.16500 119244.000000
2784 11918 1 0.16500 119244.000000
2784 15371 1 0.16500 119244.000000
2785 11918 1 0.16500 119244.000000
2785 14028 1 0.16500 119244.000000
2786 11918 1 0.16500 119244.000000
2786 13946 1 0.16500 119244.000000
2787 11918 1 0.16500 119244.000000
2787 13064 1 0.16500 119244.000000
2788 11919 1 0.16500 119244.000000
2788 13737 1 0.16500 119244.000000
2789 11919 1 0.16500 119244.000000
2789 12620 1 0.16500 119244.000000
2790 11919 1 0.16500 119244.000000
2790 15531 1 0.16500 119244.000000
2791 11920 1 0.16500 119244.000000
2791 12483 1 0.16500 119244.000000
2792 11920 1 0.16500 119244.000000
2792 13784 1 0.16500 119244.000000
2793 12483 1 0.16500 119244.000000
2793 12788 1 0.16500 119244.000000
2794 11921 1 0.16500 119244.000000
2794 16273 1 0.16500 119244.000000
2795 11921 1 0.16500 119244.000000
2795 15213 1 0.16500 119244.000000
2796 11921 1 0.16500 119244.000000
2796 14683 1 0.16500 119244.000000
2797 13755 1 0.16500 119244.000000
2797 15213 1 0.16500 119244.000000
2798 11922 1 0.16500 119244.000000
2798 15894 1 0.16500 119244.000000
2799 11922 1 0.16500 119244.000000
2799 15531 1 0.16500 119244.000000
2800 11923 1 0.16500 119244.000000
2800 14041 1 0.16500 119244.000000
2801 11923 1 0.16500 119244.000000
2801 14732 1 0.16500 119244.000000
2802 12771 1 0.16500 119244.000000
2802 14041 1 0.16500 119244.000000
2803 11924 1 0.16500 119244.000000
2803 14269 1 0.16500 119244.000000
2804 11924 1 0.16500 119244.000000
2804 14563 1 0.16500 119244.000000
2805 11924 1 0.16500 119244.000000
2805 14238 1 0.16500 119244.000000
2806 11925 1 0.16500 119244.000000
2806 12572 1 0.16500 119244.000000
2807 11925 1 0.16500 119244.000000
2807 13998 1 0.16500 119244.000000
2808 11925 1 0.16500 119244.000000
2808 15452 1 0.16500 119244.000000
2809 11925 1 0.16500 119244.000000
2809 12878 1 0.16500 119244.000000
2810 11926 1 0.16500 119244.000000
2810 13881 1 0.16500 119244.000000
2811 11926 1 0.16500 119244.000000
2811 14079 1 0.16500 119244.000000
2812 11926 1 0.16500 119244.000000
2812 15191 1 0.16500 119244.000000
2813 11926 1 0.16500 119244.000000
2813 14774 1 0.16500 119244.000000
2814 11927 1 0.16500 119244.000000
2814 14602 1 0.16500 119244.000000
2815 13570 1 0.16500 119244.000000
2815 13629 1 0.16500 119244.000000
2816 11927 1 0.16500 119244.000000
2816 15621 1 0.16500 119244.000000
2817 11349 1 0.16500 119244.000000
2817 13570 1 0.16500 119244.000000
2818 11928 1 0.16500 119244.000000
2818 12183 1 0.16500 119244.000000
2819 11928 1 0.16500 119244.000000
2819 13711 1 0.16500 119244.000000
2820 11928 1 0.16500 119244.000000
2820 15756 1 0.16500 119244.000000
2821 11928 1 0.16500 119244.000000
2821 13370 1 0.16500 119244.000000
2822 11929 1 0.16500 119244.000000
2822 15610 1 0.16500 119244.000000
2823 11929 1 0.16500 119244.000000
2823 16258 1 0.16500 119244.000000
2824 11929 1 0.16500 119244.000000
2824 15827 1 0.16500 119244.000000
2825 11930 1 0.16500 119244.000000
2825 15336 1 0.16500 119244.000000
2826 11930 1 0.16500 119244.000000
2826 16168 1 0.16500 119244.000000
2827 11930 1 0.16500 119244.000000
2827 14119 1 0.16500 119244.000000
2828 11930 1 0.16500 119244.000000
2828 16132 1 0.16500 119244.000000
2829 11931 1 0.16500 119244.000000
2829 15950 1 0.16500 119244.000000
2830 11931 1 0.16500 119244.000000
2830 15784 1 0.16500 119244.000000
2831 11931 1 0.16500 119244.000000
2831 13739 1 0.16500 119244.000000
2832 11932 1 0.16500 119244.000000
2832 12092 1 0.16500 119244.000000
2833 11932 1 0.16500 119244.000000
2833 12452 1 0.16500 119244.000000
2834 11933 1 0.16500 119244.000000
2834 11957 1 0.16500 119244.000000
2835 11933 1 0.16500 119244.000000
2835 14371 1 0.16500 119244.000000
2836 11933 1 0.16500 119244.000000
2836 12343 1 0.16500 119244.000000
2837 11934 1 0.16500 119244.000000
2837 15158 1 0.16500 119244.000000
2838 11934 1 0.16500 119244.000000
2838 15310 1 0.16500 119244.000000
2839 11934 1 0.16500 119244.000000
2839 17655 1 0.16500 119244.000000
2840 11935 1 0.16500 119244.000000
2840 12790 1 0.16500 119244.000000
2841 11935 1 0.16500 119244.000000
2841 14440 1 0.16500 119244.000000
2842 11935 1 0.16500 119244.000000
2842 12780 1 0.16500 119244.000000
2843 11935 1 0.16500 119244.000000
2843 12420 1 0.16500 119244.000000
2844 11936 1 0.16500 119244.000000
2844 13919 1 0.16500 119244.000000
2845 11936 1 0.16500 119244.000000
2845 12148 1 0.16500 119244.000000
2846 11936 1 0.16500 119244.000000
2846 14383 1 0.16500 119244.000000
2847 11936 1 0.16500 119244.000000
2847 13298 1 0.16500 119244.000000
2848 11937 1 0.16500 119244.000000
2848 13662 1 0.16500 119244.000000
2849 11937 1 0.16500 119244.000000
2849 14943 1 0.16500 119244.000000
2850 11937 1 0.16500 119244.000000
2850 12122 1 0.16500 119244.000000
2851 11938 1 0.16500 119244.000000
2851 12648 1 0.16500 119244.000000
2852 11938 1 0.16500 119244.000000
2852 12589 1 0.16500 119244.000000
2853 11938 1 0.16500 119244.000000
2853 13885 1 0.16500 119244.000000
2854 11939 1 0.16500 119244.000000
2854 15633 1 0.16500 119244.000000
2855 11939 1 0.16500 119244.000000
2855 13613 1 0.16500 119244.000000
2856 11939 1 0.16500 119244.000000
2856 13888 1 0.16500 119244.000000
2857 12158 1 0.16500 119244.000000
2857 21913 1 0.16500 119244.000000
2858 11940 1 0.16500 119244.000000
2858 13462 1 0.16500 119244.000000
2859 11940 1 0.16500 119244.000000
2859 13239 1 0.16500 119244.000000
2860 11940 1 0.16500 119244.000000
2860 15063 1 0.16500 119244.000000
2861 13462 1 0.16500 119244.000000
2861 14952 1 0.16500 119244.000000
2862 11941 1 0.16500 119244.000000
2862 13429 1 0.16500 119244.000000
2863 11941 1 0.16500 119244.000000
2863 16051 1 0.16500 119244.000000
2864 11942 1 0.16500 119244.000000
2864 12422 1 0.16500 119244.000000
2865 11942 1 0.16500 119244.000000
2865 12495 1 0.16500 119244.000000
2866 12495 1 0.16500 119244.000000
2866 15250 1 0.16500 119244.000000
2867 11943 1 0.16500 119244.000000
2867 14966 1 0.16500 119244.000000
2868 11943 1 0.16500 119244.000000
2868 15976 1 0.16500 119244.000000
2869 11943 1 0.16500 119244.000000
2869 14134 1 0.16500 119244.000000
2870 11943 1 0.16500 119244.000000
2870 13224 1 0.16500 119244.000000
2871 11944 1 0.16500 119244.000000
2871 15488 1 0.16500 119244.000000
2872 11944 1 0.16500 119244.000000
2872 12696 1 0.16500 119244.000000
2873 11944 1 0.16500 119244.000000
2873 13986 1 0.16500 119244.000000
2874 11945 1 0.16500 119244.000000
2874 13909 1 0.16500 119244.000000
2875 11945 1 0.16500 119244.000000
2875 13432 1 0.16500 119244.000000
2876 11945 1 0.16500 119244.000000
2876 14031 1 0.16500 119244.000000
2877 11946 1 0.16500 119244.000000
2877 13592 1 0.16500 119244.000000
2878 11946 1 0.16500 119244.000000
2878 12008 1 0.16500 119244.000000
2879 11946 1 0.16500 119244.000000
2879 12398 1 0.16500 119244.000000
2880 11947 1 0.16500 119244.000000
2880 12035 1 0.16500 119244.000000
2881 11947 1 0.16500 119244.000000
2881 14122 1 0.16500 119244.000000
2882 11947 1 0.16500 119244.000000
2882 12741 1 0.16500 119244.000000
2883 11947 1 0.16500 119244.000000
2883 12543 1 0.16500 119244.000000
2884 19393 1 0.16500 119244.000000
2884 23545 1 0.16500 119244.000000
2885 13268 1 0.16500 119244.000000
2885 23545 1 0.16500 119244.000000
2886 11948 1 0.16500 119244.000000
2886 15309 1 0.16500 119244.000000
2887 11948 1 0.16500 119244.000000
2887 16234 1 0.16500 119244.000000
2888 11948 1 0.16500 119244.000000
2888 13698 1 0.16500 119244.000000
2889 14286 1 0.16500 119244.000000
2889 23713 1 0.16500 119244.000000
2890 23713 1 0.16500 119244.000000
2890 24094 1 0.16500 119244.000000
2891 14485 1 0.16500 119244.000000
2891 23713 1 0.16500 119244.000000
2892 11949 1 0.16500 119244.000000
2892 12995 1 0.16500 119244.000000
2893 11949 1 0.16500 119244.000000
2893 16843 1 0.16500 119244.000000
2894 12227 1 0.16500 119244.000000
2894 14341 1 0.16500 119244.000000
2895 11949 1 0.16500 119244.000000
2895 14341 1 0.16500 119244.000000
2896 11950 1 0.16500 119244.000000
2896 12887 1 0.16500 119244.000000
2897 11950 1 0.16500 119244.000000
2897 12921 1 0.16500 119244.000000
2898 11950 1 0.16500 119244.000000
2898 14707 1 0.16500 119244.000000
2899 11950 1 0.16500 119244.000000
2899 22885 1 0.16500 119244.000000
2900 11951 1 0.16500 119244.000000
2900 14764 1 0.16500 119244.000000
2901 11951 1 0.16500 119244.000000
2901 13286 1 0.16500 119244.000000
2902 11951 1 0.16500 119244.000000
2902 14598 1 0.16500 119244.000000
2903 11952 1 0.16500 119244.000000
2903 12846 1 0.16500 119244.000000
2904 11952 1 0.16500 119244.000000
2904 15780 1 0.16500 119244.000000
2905 11952 1 0.16500 119244.000000
2905 15371 1 0.16500 119244.000000
2906 11953 1 0.16500 119244.000000
2906 13552 1 0.16500 119244.000000
2907 13182 1 0.16500 119244.000000
2907 15837 1 0.16500 119244.000000
2908 11953 1 0.16500 119244.000000
2908 15837 1 0.16500 119244.000000
2909 11954 1 0.16500 119244.000000
2909 14843 1 0.16500 119244.000000
2910 11954 1 0.16500 119244.000000
2910 14146 1 0.16500 119244.000000
2911 11954 1 0.16500 119244.000000
2911 14156 1 0.16500 119244.000000
2912 11955 1 0.16500 119244.000000
2912 14800 1 0.16500 119244.000000
2913 11955 1 0.16500 119244.000000
2913 14665 1 0.16500 119244.000000
2914 11955 1 0.16500 119244.000000
2914 16969 1 0.16500 119244.000000
2915 11956 1 0.16500 119244.000000
2915 15829 1 0.16500 119244.000000
2916 11956 1 0.16500 119244.000000
2916 15382 1 0.16500 119244.000000
2917 11956 1 0.16500 119244.000000
2917 12414 1 0.16500 119244.000000
2918 11957 1 0.16500 119244.000000
2918 14782 1 0.16500 119244.000000
2919 11957 1 0.16500 119244.000000
2919 12071 1 0.16500 119244.000000
2920 11957 1 0.16500 119244.000000
2920 16235 1 0.16500 119244.000000
2921 20005 1 0.16500 119244.000000
2921 23716 1 0.16500 119244.000000
2922 14403 1 0.16500 119244.000000
2922 23716 1 0.16500 119244.000000
2923 11959 1 0.16500 119244.000000
2923 16262 1 0.16500 119244.000000
2924 11959 1 0.16500 119244.000000
2924 15343 1 0.16500 119244.000000
2925 11959 1 0.16500 119244.000000
2925 16061 1 0.16500 119244.000000
2926 11959 1 0.16500 119244.000000
2926 15751 1 0.16500 119244.000000
2927 11960 1 0.16500 119244.000000
2927 15512 1 0.16500 119244.000000
2928 11960 1 0.16500 119244.000000
2928 16034 1 0.16500 119244.000000
2929 11960 1 0.16500 119244.000000
2929 15852 1 0.16500 119244.000000
2930 11960 1 0.16500 119244.000000
2930 15292 1 0.16500 119244.000000
2931 11961 1 0.16500 119244.000000
2931 13882 1 0.16500 119244.000000
2932 11961 1 0.16500 119244.000000
2932 12770 1 0.16500 119244.000000
2933 11961 1 0.16500 119244.000000
2933 13430 1 0.16500 119244.000000
2934 11962 1 0.16500 119244.000000
2934 16091 1 0.16500 119244.000000
2935 11962 1 0.16500 119244.000000
2935 12011 1 0.16500 119244.000000
2936 11962 1 0.16500 119244.000000
2936 13914 1 0.16500 119244.000000
2937 11963 1 0.16500 119244.000000
2937 12581 1 0.16500 119244.000000
2938 11963 1 0.16500 119244.000000
2938 14749 1 0.16500 119244.000000
2939 11963 1 0.16500 119244.000000
2939 14727 1 0.16500 119244.000000
2940 11964 1 0.16500 119244.000000
2940 16099 1 0.16500 119244.000000
2941 11964 1 0.16500 119244.000000
2941 12272 1 0.16500 119244.000000
2942 11491 1 0.16500 119244.000000
2942 11964 1 0.16500 119244.000000
2943 12272 1 0.16500 119244.000000
2943 13889 1 0.16500 119244.000000
2944 13691 1 0.16500 119244.000000
2944 23557 1 0.16500 119244.000000
2945 14526 1 0.16500 119244.000000
2945 23557 1 0.16500 119244.000000
2946 15758 1 0.16500 119244.000000
2946 23557 1 0.16500 119244.000000
2947 11965 1 0.16500 119244.000000
2947 15266 1 0.16500 119244.000000
2948 11965 1 0.16500 119244.000000
2948 13103 1 0.16500 119244.000000
2949 11965 1 0.16500 119244.000000
2949 15423 1 0.16500 119244.000000
2950 11965 1 0.16500 119244.000000
2950 15994 1 0.16500 119244.000000
2951 16062 1 0.16500 119244.000000
2951 16152 1 0.16500 119244.000000
2952 16062 1 0.16500 119244.000000
2952 23902 1 0.16500 119244.000000
2953 11966 1 0.16500 119244.000000
2953 16062 1 0.16500 119244.000000
2954 14026 1 0.16500 119244.000000
2954 16062 1 0.16500 119244.000000
2955 11967 1 0.16500 119244.000000
2955 14718 1 0.16500 119244.000000
2956 11967 1 0.16500 119244.000000
2956 15961 1 0.16500 119244.000000
2957 11967 1 0.16500 119244.000000
2957 13660 1 0.16500 119244.000000
2958 11968 1 0.16500 119244.000000
2958 14948 1 0.16500 119244.000000
2959 11968 1 0.16500 119244.000000
2959 15321 1 0.16500 119244.000000
2960 11968 1 0.16500 119244.000000
2960 14368 1 0.16500 119244.000000
2961 11968 1 0.16500 119244.000000
2961 15602 1 0.16500 119244.000000
2962 11969 1 0.16500 119244.000000
2962 13035 1 0.16500 119244.000000
2963 11969 1 0.16500 119244.000000
2963 24259 1 0.16500 119244.000000
2964 11969 1 0.16500 119244.000000
2964 19513 1 0.16500 119244.000000
2965 11969 1 0.16500 119244.000000
2965 23269 1 0.16500 119244.000000
2966 11970 1 0.16500 119244.000000
2966 13465 1 0.16500 119244.000000
2967 11970 1 0.16500 119244.000000
2967 12962 1 0.16500 119244.000000
2968 11970 1 0.16500 119244.000000
2968 14303 1 0.16500 119244.000000
2969 11970 1 0.16500 119244.000000
2969 15529 1 0.16500 119244.000000
2970 11971 1 0.16500 119244.000000
2970 15447 1 0.16500 119244.000000
2971 11971 1 0.16500 119244.000000
2971 12480 1 0.16500 119244.000000
2972 12187 1 0.16500 119244.000000
2972 12480 1 0.16500 119244.000000
2973 11971 1 0.16500 119244.000000
2973 13803 1 0.16500 119244.000000
2974 11972 1 0.16500 119244.000000
2974 12200 1 0.16500 119244.000000
2975 11972 1 0.16500 119244.000000
2975 13080 1 0.16500 119244.000000
2976 11972 1 0.16500 119244.000000
2976 13447 1 0.16500 119244.000000
2977 11972 1 0.16500 119244.000000
2977 14154 1 0.16500 119244.000000
2978 11973 1 0.16500 119244.000000
2978 14209 1 0.16500 119244.000000
2979 11973 1 0.16500 119244.000000
2979 12861 1 0.16500 119244.000000
2980 11973 1 0.16500 119244.000000
2980 16128 1 0.16500 119244.000000
2981 11973 1 0.16500 119244.000000
2981 16065 1 0.16500 119244.000000
2982 11974 1 0.16500 119244.000000
2982 13605 1 0.16500 119244.000000
2983 11974 1 0.16500 119244.000000
2983 12892 1 0.16500 119244.000000
2984 11974 1 0.16500 119244.000000
2984 13124 1 0.16500 119244.000000
2985 11974 1 0.16500 119244.000000
2985 12584 1 0.16500 119244.000000
2986 21277 1 0.16500 119244.000000
2986 22297 1 0.16500 119244.000000
2987 14745 1 0.16500 119244.000000
2987 22297 1 0.16500 119244.000000
2988 14506 1 0.16500 119244.000000
2988 22297 1 0.16500 119244.000000
2989 11871 1 0.16500 119244.000000
2989 16156 1 0.16500 119244.000000
2990 11871 1 0.16500 119244.000000
2990 16997 1 0.16500 119244.000000
2991 18985 1 0.16500 119244.000000
2991 24019 1 0.16500 119244.000000
2992 14893 1 0.16500 119244.000000
2992 15425 1 0.16500 119244.000000
2993 12229 1 0.16500 119244.000000
2993 15425 1 0.16500 119244.000000
2994 12586 1 0.16500 119244.000000
2994 15425 1 0.16500 119244.000000
2995 15425 1 0.16500 119244.000000
2995 22441 1 0.16500 119244.000000
2996 11975 1 0.16500 119244.000000
2996 15104 1 0.16500 119244.000000
2997 11975 1 0.16500 119244.000000
2997 12566 1 0.16500 119244.000000
2998 11976 1 0.16500 119244.000000
2998 14667 1 0.16500 119244.000000
2999 11976 1 0.16500 119244.000000
2999 16163 1 0.16500 119244.000000
3000 11976 1 0.16500 119244.000000
3000 14890 1 0.16500 119244.000000
3001 11976 1 0.16500 119244.000000
3001 12477 1 0.16500 119244.000000
3002 11977 1 0.16500 119244.000000
3002 12128 1 0.16500 119244.000000
3003 11977 1 0.16500 119244.000000
3003 14532 1 0.16500 119244.000000
3004 11978 1 0.16500 119244.000000
3004 13606 1 0.16500 119244.000000
3005 11978 1 0.16500 119244.000000
3005 12803 1 0.16500 119244.000000
3006 11978 1 0.16500 119244.000000
3006 13948 1 0.16500 119244.000000
3007 11979 1 0.16500 119244.000000
3007 15895 1 0.16500 119244.000000
3008 13472 1 0.16500 119244.000000
3008 13648 1 0.16500 119244.000000
3009 11979 1 0.16500 119244.000000
3009 14195 1 0.16500 119244.000000
3010 11979 1 0.16500 119244.000000
3010 13648 1 0.16500 119244.000000
3011 11980 1 0.16500 119244.000000
3011 16264 1 0.16500 119244.000000
3012 11980 1 0.16500 119244.000000
3012 13147 1 0.16500 119244.000000
3013 11980 1 0.16500 119244.000000
3013 20725 1 0.16500 119244.000000
3014 11980 1 0.16500 119244.000000
3014 15607 1 0.16500 119244.000000
3015 11981 1 0.16500 119244.000000
3015 12498 1 0.16500 119244.000000
3016 11981 1 0.16500 119244.000000
3016 16188 1 0.16500 119244.000000
3017 11981 1 0.16500 119244.000000
3017 14071 1 0.16500 119244.000000
3018 11982 1 0.16500 119244.000000
3018 14149 1 0.16500 119244.000000
3019 11982 1 0.16500 119244.000000
3019 14674 1 0.16500 119244.000000
3020 11982 1 0.16500 119244.000000
3020 13974 1 0.16500 119244.000000
3021 11982 1 0.16500 119244.000000
3021 15748 1 0.16500 119244.000000
3022 11983 1 0.16500 119244.000000
3022 13875 1 0.16500 119244.000000
3023 11983 1 0.16500 119244.000000
3023 12089 1 0.16500 119244.000000
3024 11983 1 0.16500 119244.000000
3024 15026 1 0.16500 119244.000000
3025 11984 1 0.16500 119244.000000
3025 13668 1 0.16500 119244.000000
3026 11984 1 0.16500 119244.000000
3026 12265 1 0.16500 119244.000000
3027 11984 1 0.16500 119244.000000
3027 16068 1 0.16500 119244.000000
3028 11984 1 0.16500 119244.000000
3028 13661 1 0.16500 119244.000000
3029 11985 1 0.16500 119244.000000
3029 15526 1 0.16500 119244.000000
3030 11985 1 0.16500 119244.000000
3030 15276 1 0.16500 119244.000000
3031 11985 1 0.16500 119244.000000
3031 12413 1 0.16500 119244.000000
3032 11985 1 0.16500 119244.000000
3032 12151 1 0.16500 119244.000000
3033 11986 1 0.16500 119244.000000
3033 15684 1 0.16500 119244.000000
3034 11986 1 0.16500 119244.000000
3034 23818 1 0.16500 119244.000000
3035 11986 1 0.16500 119244.000000
3035 24402 1 0.16500 119244.000000
3036 11987 1 0.16500 119244.000000
3036 15307 1 0.16500 119244.000000
3037 11987 1 0.16500 119244.000000
3037 12664 1 0.16500 119244.000000
3038 11987 1 0.16500 119244.000000
3038 12073 1 0.16500 119244.000000
3039 11988 1 0.16500 119244.000000
3039 16381 1 0.16500 119244.000000
3040 11988 1 0.16500 119244.000000
3040 14624 1 0.16500 119244.000000
3041 11988 1 0.16500 119244.000000
3041 24226 1 0.16500 119244.000000
3042 14300 1 0.16500 119244.000000
3042 24337 1 0.16500 119244.000000
3043 11989 1 0.16500 119244.000000
3043 15570 1 0.16500 119244.000000
3044 11989 1 0.16500 119244.000000
3044 14823 1 0.16500 119244.000000
3045 11989 1 0.16500 119244.000000
3045 12755 1 0.16500 119244.000000
3046 14973 1 0.16500 119244.000000
3046 15570 1 0.16500 119244.000000
3047 16182 1 0.16500 119244.000000
3047 17907 1 0.16500 119244.000000
3048 16218 1 0.16500 119244.000000
3048 17907 1 0.16500 119244.000000
3049 11990 1 0.16500 119244.000000
3049 13998 1 0.16500 119244.000000
3050 11990 1 0.16500 119244.000000
3050 15451 1 0.16500 119244.000000
3051 11990 1 0.16500 119244.000000
3051 12812 1 0.16500 119244.000000
3052 11990 1 0.16500 119244.000000
3052 15951 1 0.16500 119244.000000
3053 11991 1 0.16500 119244.000000
3053 15317 1 0.16500 119244.000000
3054 11285 1 0.16500 119244.000000
3054 11991 1 0.16500 119244.000000
3055 11991 1 0.16500 119244.000000
3055 14832 1 0.16500 119244.000000
3056 11642 1 0.16500 119244.000000
3056 12705 1 0.16500 119244.000000
3057 11511 1 0.16500 119244.000000
3057 14904 1 0.16500 119244.000000
3058 11993 1 0.16500 119244.000000
3058 14039 1 0.16500 119244.000000
3059 11993 1 0.16500 119244.000000
3059 15800 1 0.16500 119244.000000
3060 11993 1 0.16500 119244.000000
3060 15541 1 0.16500 119244.000000
3061 11994 1 0.16500 119244.000000
3061 13043 1 0.16500 119244.000000
3062 11994 1 0.16500 119244.000000
3062 16088 1 0.16500 119244.000000
3063 11995 1 0.16500 119244.000000
3063 12204 1 0.16500 119244.000000
3064 11995 1 0.16500 119244.000000
3064 13633 1 0.16500 119244.000000
3065 11995 1 0.16500 119244.000000
3065 13474 1 0.16500 119244.000000
3066 11995 1 0.16500 119244.000000
3066 15989 1 0.16500 119244.000000
3067 11996 1 0.16500 119244.000000
3067 13949 1 0.16500 119244.000000
3068 11996 1 0.16500 119244.000000
3068 14377 1 0.16500 119244.000000
3069 11996 1 0.16500 119244.000000
3069 16235 1 0.16500 119244.000000
3070 11997 1 0.16500 119244.000000
3070 14225 1 0.16500 119244.000000
3071 11997 1 0.16500 119244.000000
3071 20617 1 0.16500 119244.000000
3072 11997 1 0.16500 119244.000000
3072 22105 1 0.16500 119244.000000
3073 11997 1 0.16500 119244.000000
3073 16051 1 0.16500 119244.000000
3074 11998 1 0.16500 119244.000000
3074 12786 1 0.16500 119244.000000
3075 11998 1 0.16500 119244.000000
3075 15619 1 0.16500 119244.000000
3076 11998 1 0.16500 119244.000000
3076 13817 1 0.16500 119244.000000
3077 11999 1 0.16500 119244.000000
3077 13269 1 0.16500 119244.000000
3078 11999 1 0.16500 119244.000000
3078 15848 1 0.16500 119244.000000
3079 11999 1 0.16500 119244.000000
3079 15247 1 0.16500 119244.000000
3080 12000 1 0.16500 119244.000000
3080 15698 1 0.16500 119244.000000
3081 12000 1 0.16500 119244.000000
3081 16129 1 0.16500 119244.000000
3082 12001 1 0.16500 119244.000000
3082 15860 1 0.16500 119244.000000
3083 12001 1 0.16500 119244.000000
3083 15953 1 0.16500 119244.000000
3084 13281 1 0.16500 119244.000000
3084 14532 1 0.16500 119244.000000
3085 12002 1 0.16500 119244.000000
3085 15693 1 0.16500 119244.000000
3086 12002 1 0.16500 119244.000000
3086 13281 1 0.16500 119244.000000
3087 12003 1 0.16500 119244.000000
3087 13405 1 0.16500 119244.000000
3088 12003 1 0.16500 119244.000000
3088 12360 1 0.16500 119244.000000
3089 12003 1 0.16500 119244.000000
3089 14404 1 0.16500 119244.000000
3090 12004 1 0.16500 119244.000000
3090 12958 1 0.16500 119244.000000
3091 12004 1 0.16500 119244.000000
3091 12737 1 0.16500 119244.000000
3092 12004 1 0.16500 119244.000000
3092 13876 1 0.16500 119244.000000
3093 12004 1 0.16500 119244.000000
3093 12043 1 0.16500 119244.000000
3094 12005 1 0.16500 119244.000000
3094 14453 1 0.16500 119244.000000
3095 12005 1 0.16500 119244.000000
3095 12588 1 0.16500 119244.000000
3096 12005 1 0.16500 119244.000000
3096 14548 1 0.16500 119244.000000
3097 12006 1 0.16500 119244.000000
3097 13468 1 0.16500 119244.000000
3098 12006 1 0.16500 119244.000000
3098 13557 1 0.16500 119244.000000
3099 12006 1 0.16500 119244.000000
3099 15485 1 0.16500 119244.000000
3100 12007 1 0.16500 119244.000000
3100 15730 1 0.16500 119244.000000
3101 12007 1 0.16500 119244.000000
3101 24004 1 0.16500 119244.000000
3102 12008 1 0.16500 119244.000000
3102 14220 1 0.16500 119244.000000
3103 12008 1 0.16500 119244.000000
3103 12740 1 0.16500 119244.000000
3104 14456 1 0.16500 119244.000000
3104 22429 1 0.16500 119244.000000
3105 21961 1 0.16500 119244.000000
3105 22429 1 0.16500 119244.000000
3106 22429 1 0.16500 119244.000000
3106 23935 1 0.16500 119244.000000
3107 15081 1 0.16500 119244.000000
3107 15900 1 0.16500 119244.000000
3108 12331 1 0.16500 119244.000000
3108 15081 1 0.16500 119244.000000
3109 17515 1 0.16500 119244.000000
3109 23722 1 0.16500 119244.000000
3110 12009 1 0.16500 119244.000000
3110 16037 1 0.16500 119244.000000
3111 12009 1 0.16500 119244.000000
3111 13239 1 0.16500 119244.000000
3112 12009 1 0.16500 119244.000000
3112 13989 1 0.16500 119244.000000
3113 12010 1 0.16500 119244.000000
3113 13907 1 0.16500 119244.000000
3114 12010 1 0.16500 119244.000000
3114 16159 1 0.16500 119244.000000
3115 12010 1 0.16500 119244.000000
3115 12679 1 0.16500 119244.000000
3116 12010 1 0.16500 119244.000000
3116 16080 1 0.16500 119244.000000
3117 12011 1 0.16500 119244.000000
3117 12957 1 0.16500 119244.000000
3118 12011 1 0.16500 119244.000000
3118 13910 1 0.16500 119244.000000
3119 23725 1 0.16500 119244.000000
3119 24040 1 0.16500 119244.000000
3120 14544 1 0.16500 119244.000000
3120 23725 1 0.16500 119244.000000
3121 15083 1 0.16500 119244.000000
3121 23725 1 0.16500 119244.000000
3122 12012 1 0.16500 119244.000000
3122 14519 1 0.16500 119244.000000
3123 12012 1 0.16500 119244.000000
3123 14652 1 0.16500 119244.000000
3124 12012 1 0.16500 119244.000000
3124 15002 1 0.16500 119244.000000
3125 12012 1 0.16500 119244.000000
3125 15100 1 0.16500 119244.000000
3126 12013 1 0.16500 119244.000000
3126 14310 1 0.16500 119244.000000
3127 12013 1 0.16500 119244.000000
3127 15351 1 0.16500 119244.000000
3128 12013 1 0.16500 119244.000000
3128 16093 1 0.16500 119244.000000
3129 12013 1 0.16500 119244.000000
3129 16174 1 0.16500 119244.000000
3130 12014 1 0.16500 119244.000000
3130 14228 1 0.16500 119244.000000
3131 12014 1 0.16500 119244.000000
3131 13331 1 0.16500 119244.000000
3132 12014 1 0.16500 119244.000000
3132 12089 1 0.16500 119244.000000
3133 13811 1 0.16500 119244.000000
3133 24178 1 0.16500 119244.000000
3134 12015 1 0.16500 119244.000000
3134 13811 1 0.16500 119244.000000
3135 13811 1 0.16500 119244.000000
3135 14844 1 0.16500 119244.000000
3136 12015 1 0.16500 119244.000000
3136 15262 1 0.16500 119244.000000
3137 12016 1 0.16500 119244.000000
3137 15632 1 0.16500 119244.000000
3138 12016 1 0.16500 119244.000000
3138 14881 1 0.16500 119244.000000
3139 12016 1 0.16500 119244.000000
3139 13257 1 0.16500 119244.000000
3140 12017 1 0.16500 119244.000000
3140 15830 1 0.16500 119244.000000
3141 12017 1 0.16500 119244.000000
3141 15057 1 0.16500 119244.000000
3142 12017 1 0.16500 119244.000000
3142 12881 1 0.16500 119244.000000
3143 12017 1 0.16500 119244.000000
3143 13675 1 0.16500 119244.000000
3144 12018 1 0.16500 119244.000000
3144 13818 1 0.16500 119244.000000
3145 12018 1 0.16500 119244.000000
3145 14543 1 0.16500 119244.000000
3146 12018 1 0.16500 119244.000000
3146 13120 1 0.16500 119244.000000
3147 15345 1 0.16500 119244.000000
3147 16591 1 0.16500 119244.000000
3148 22645 1 0.16500 119244.000000
3148 23926 1 0.16500 119244.000000
3149 15540 1 0.16500 119244.000000
3149 22645 1 0.16500 119244.000000
3150 12019 1 0.16500 119244.000000
3150 13660 1 0.16500 119244.000000
3151 12019 1 0.16500 119244.000000
3151 13111 1 0.16500 119244.000000
3152 12019 1 0.16500 119244.000000
3152 12064 1 0.16500 119244.000000
3153 12019 1 0.16500 119244.000000
3153 12807 1 0.16500 119244.000000
3154 12020 1 0.16500 119244.000000
3154 15322 1 0.16500 119244.000000
3155 12020 1 0.16500 119244.000000
3155 15790 1 0.16500 119244.000000
3156 12020 1 0.16500 119244.000000
3156 13033 1 0.16500 119244.000000
3157 12021 1 0.16500 119244.000000
3157 13623 1 0.16500 119244.000000
3158 12021 1 0.16500 119244.000000
3158 15489 1 0.16500 119244.000000
3159 12021 1 0.16500 119244.000000
3159 15804 1 0.16500 119244.000000
3160 12021 1 0.16500 119244.000000
3160 14766 1 0.16500 119244.000000
3161 16233 1 0.16500 119244.000000
3161 17515 1 0.16500 119244.000000
3162 12022 1 0.16500 119244.000000
3162 16038 1 0.16500 119244.000000
3163 12022 1 0.16500 119244.000000
3163 14722 1 0.16500 119244.000000
3164 12022 1 0.16500 119244.000000
3164 12340 1 0.16500 119244.000000
3165 12023 1 0.16500 119244.000000
3165 13582 1 0.16500 119244.000000
3166 12023 1 0.16500 119244.000000
3166 13550 1 0.16500 119244.000000
3167 12023 1 0.16500 119244.000000
3167 12058 1 0.16500 119244.000000
3168 12023 1 0.16500 119244.000000
3168 12292 1 0.16500 119244.000000
3169 12024 1 0.16500 119244.000000
3169 14483 1 0.16500 119244.000000
3170 12024 1 0.16500 119244.000000
3170 14680 1 0.16500 119244.000000
3171 12024 1 0.16500 119244.000000
3171 12766 1 0.16500 119244.000000
3172 12024 1 0.16500 119244.000000
3172 12775 1 0.16500 119244.000000
3173 12025 1 0.16500 119244.000000
3173 13429 1 0.16500 119244.000000
3174 12025 1 0.16500 119244.000000
3174 14037 1 0.16500 119244.000000
3175 12025 1 0.16500 119244.000000
3175 12756 1 0.16500 119244.000000
3176 12025 1 0.16500 119244.000000
3176 12692 1 0.16500 119244.000000
3177 12026 1 0.16500 119244.000000
3177 13260 1 0.16500 119244.000000
3178 12026 1 0.16500 119244.000000
3178 14631 1 0.16500 119244.000000
3179 12026 1 0.16500 119244.000000
3179 13618 1 0.16500 119244.000000
3180 12026 1 0.16500 119244.000000
3180 12578 1 0.16500 119244.000000
3181 12027 1 0.16500 119244.000000
3181 13150 1 0.16500 119244.000000
3182 12027 1 0.16500 119244.000000
3182 13334 1 0.16500 119244.000000
3183 12027 1 0.16500 119244.000000
3183 15134 1 0.16500 119244.000000
3184 16773 1 0.16500 119244.000000
3184 21373 1 0.16500 119244.000000
3185 12028 1 0.16500 119244.000000
3185 15945 1 0.16500 119244.000000
3186 12028 1 0.16500 119244.000000
3186 12711 1 0.16500 119244.000000
3187 12028 1 0.16500 119244.000000
3187 14159 1 0.16500 119244.000000
3188 14404 1 0.16500 119244.000000
3188 23728 1 0.16500 119244.000000
3189 16885 1 0.16500 119244.000000
3189 23728 1 0.16500 119244.000000
3190 12029 1 0.16500 119244.000000
3190 14045 1 0.16500 119244.000000
3191 12029 1 0.16500 119244.000000
3191 13534 1 0.16500 119244.000000
3192 12029 1 0.16500 119244.000000
3192 15590 1 0.16500 119244.000000
3193 12029 1 0.16500 119244.000000
3193 12271 1 0.16500 119244.000000
3194 12030 1 0.16500 119244.000000
3194 15850 1 0.16500 119244.000000
3195 12030 1 0.16500 119244.000000
3195 20941 1 0.16500 119244.000000
3196 12193 1 0.16500 119244.000000
3196 15850 1 0.16500 119244.000000
3197 12030 1 0.16500 119244.000000
3197 13737 1 0.16500 119244.000000
3198 12031 1 0.16500 119244.000000
3198 16074 1 0.16500 119244.000000
3199 12031 1 0.16500 119244.000000
3199 13139 1 0.16500 119244.000000
3200 12031 1 0.16500 119244.000000
3200 13315 1 0.16500 119244.000000
3201 12031 1 0.16500 119244.000000
3201 16273 1 0.16500 119244.000000
3202 12032 1 0.16500 119244.000000
3202 13585 1 0.16500 119244.000000
3203 12032 1 0.16500 119244.000000
3203 13257 1 0.16500 119244.000000
3204 12032 1 0.16500 119244.000000
3204 14666 1 0.16500 119244.000000
3205 12032 1 0.16500 119244.000000
3205 14111 1 0.16500 119244.000000
3206 12033 1 0.16500 119244.000000
3206 15621 1 0.16500 119244.000000
3207 12033 1 0.16500 119244.000000
3207 22705 1 0.16500 119244.000000
3208 12033 1 0.16500 119244.000000
3208 13868 1 0.16500 119244.000000
3209 12034 1 0.16500 119244.000000
3209 14852 1 0.16500 119244.000000
3210 12034 1 0.16500 119244.000000
3210 13968 1 0.16500 119244.000000
3211 12034 1 0.16500 119244.000000
3211 15484 1 0.16500 119244.000000
3212 12034 1 0.16500 119244.000000
3212 14869 1 0.16500 119244.000000
3213 12035 1 0.16500 119244.000000
3213 12083 1 0.16500 119244.000000
3214 12111 1 0.16500 119244.000000
3214 14658 1 0.16500 119244.000000
3215 12035 1 0.16500 119244.000000
3215 12111 1 0.16500 119244.000000
3216 12036 1 0.16500 119244.000000
3216 12814 1 0.16500 119244.000000
3217 12036 1 0.16500 119244.000000
3217 12049 1 0.16500 119244.000000
3218 12036 1 0.16500 119244.000000
3218 14327 1 0.16500 119244.000000
3219 12037 1 0.16500 119244.000000
3219 20641 1 0.16500 119244.000000
3220 12037 1 0.16500 119244.000000
3220 14201 1 0.16500 119244.000000
3221 12037 1 0.16500 119244.000000
3221 17767 1 0.16500 119244.000000
3222 12037 1 0.16500 119244.000000
3222 12049 1 0.16500 119244.000000
3223 16339 1 0.16500 119244.000000
3223 22753 1 0.16500 119244.000000
3224 15653 1 0.16500 119244.000000
3224 16339 1 0.16500 119244.000000
3225 12038 1 0.16500 119244.000000
3225 15943 1 0.16500 119244.000000
3226 12038 1 0.16500 119244.000000
3226 13879 1 0.16500 119244.000000
3227 12038 1 0.16500 119244.000000
3227 12977 1 0.16500 119244.000000
3228 12038 1 0.16500 119244.000000
3228 13309 1 0.16500 119244.000000
3229 12039 1 0.16500 119244.000000
3229 15167 1 0.16500 119244.000000
3230 12039 1 0.16500 119244.000000
3230 13343 1 0.16500 119244.000000
3231 12039 1 0.16500 119244.000000
3231 12405 1 0.16500 119244.000000
3232 12039 1 0.16500 119244.000000
3232 12299 1 0.16500 119244.000000
3233 12040 1 0.16500 119244.000000
3233 12815 1 0.16500 119244.000000
3234 11573 1 0.16500 119244.000000
3234 12309 1 0.16500 119244.000000
3235 11573 1 0.16500 119244.000000
3235 13653 1 0.16500 119244.000000
3236 12041 1 0.16500 119244.000000
3236 12907 1 0.16500 119244.000000
3237 12041 1 0.16500 119244.000000
3237 14874 1 0.16500 119244.000000
3238 12041 1 0.16500 119244.000000
3238 16277 1 0.16500 119244.000000
3239 12041 1 0.16500 119244.000000
3239 12982 1 0.16500 119244.000000
3240 12042 1 0.16500 119244.000000
3240 13644 1 0.16500 119244.000000
3241 12042 1 0.16500 119244.000000
3241 14753 1 0.16500 119244.000000
3242 12042 1 0.16500 119244.000000
3242 15671 1 0.16500 119244.000000
3243 12043 1 0.16500 119244.000000
3243 15269 1 0.16500 119244.000000
3244 12043 1 0.16500 119244.000000
3244 13228 1 0.16500 119244.000000
3245 12043 1 0.16500 119244.000000
3245 12663 1 0.16500 119244.000000
3246 12044 1 0.16500 119244.000000
3246 12775 1 0.16500 119244.000000
3247 12044 1 0.16500 119244.000000
3247 13405 1 0.16500 119244.000000
3248 12044 1 0.16500 119244.000000
3248 23728 1 0.16500 119244.000000
3249 12044 1 0.16500 119244.000000
3249 12235 1 0.16500 119244.000000
3250 12045 1 0.16500 119244.000000
3250 12218 1 0.16500 119244.000000
3251 12045 1 0.16500 119244.000000
3251 13996 1 0.16500 119244.000000
3252 12045 1 0.16500 119244.000000
3252 13594 1 0.16500 119244.000000
3253 12046 1 0.16500 119244.000000
3253 12751 1 0.16500 119244.000000
3254 12046 1 0.16500 119244.000000
3254 15445 1 0.16500 119244.000000
3255 12046 1 0.16500 119244.000000
3255 12823 1 0.16500 119244.000000
3256 12047 1 0.16500 119244.000000
3256 15908 1 0.16500 119244.000000
3257 12047 1 0.16500 119244.000000
3257 13975 1 0.16500 119244.000000
3258 12047 1 0.16500 119244.000000
3258 15196 1 0.16500 119244.000000
3259 12047 1 0.16500 119244.000000
3259 12147 1 0.16500 119244.000000
3260 12048 1 0.16500 119244.000000
3260 13555 1 0.16500 119244.000000
3261 12048 1 0.16500 119244.000000
3261 13466 1 0.16500 119244.000000
3262 12048 1 0.16500 119244.000000
3262 13343 1 0.16500 119244.000000
3263 12048 1 0.16500 119244.000000
3263 13665 1 0.16500 119244.000000
3264 12049 1 0.16500 119244.000000
3264 13926 1 0.16500 119244.000000
3265 12050 1 0.16500 119244.000000
3265 12881 1 0.16500 119244.000000
3266 12050 1 0.16500 119244.000000
3266 12397 1 0.16500 119244.000000
3267 12050 1 0.16500 119244.000000
3267 12765 1 0.16500 119244.000000
3268 12050 1 0.16500 119244.000000
3268 13188 1 0.16500 119244.000000
3269 12051 1 0.16500 119244.000000
3269 15297 1 0.16500 119244.000000
3270 12051 1 0.16500 119244.000000
3270 13387 1 0.16500 119244.000000
3271 12051 1 0.16500 119244.000000
3271 12388 1 0.16500 119244.000000
3272 12051 1 0.16500 119244.000000
3272 14213 1 0.16500 119244.000000
3273 12052 1 0.16500 119244.000000
3273 13139 1 0.16500 119244.000000
3274 12052 1 0.16500 119244.000000
3274 12156 1 0.16500 119244.000000
3275 12052 1 0.16500 119244.000000
3275 16247 1 0.16500 119244.000000
3276 12052 1 0.16500 119244.000000
3276 15413 1 0.16500 119244.000000
3277 12053 1 0.16500 119244.000000
3277 15163 1 0.16500 119244.000000
3278 12053 1 0.16500 119244.000000
3278 14666 1 0.16500 119244.000000
3279 12054 1 0.16500 119244.000000
3279 12234 1 0.16500 119244.000000
3280 12054 1 0.16500 119244.000000
3280 15088 1 0.16500 119244.000000
3281 12054 1 0.16500 119244.000000
3281 13309 1 0.16500 119244.000000
3282 16171 1 0.16500 119244.000000
3282 23731 1 0.16500 119244.000000
3283 16258 1 0.16500 119244.000000
3283 23731 1 0.16500 119244.000000
3284 12306 1 0.16500 119244.000000
3284 16703 1 0.16500 119244.000000
3285 14597 1 0.16500 119244.000000
3285 16703 1 0.16500 119244.000000
3286 12055 1 0.16500 119244.000000
3286 12937 1 0.16500 119244.000000
3287 12055 1 0.16500 119244.000000
3287 15454 1 0.16500 119244.000000
3288 12056 1 0.16500 119244.000000
3288 13348 1 0.16500 119244.000000
3289 12056 1 0.16500 119244.000000
3289 13132 1 0.16500 119244.000000
3290 12056 1 0.16500 119244.000000
3290 12989 1 0.16500 119244.000000
3291 12700 1 0.16500 119244.000000
3291 13255 1 0.16500 119244.000000
3292 12057 1 0.16500 119244.000000
3292 13235 1 0.16500 119244.000000
3293 12057 1 0.16500 119244.000000
3293 12700 1 0.16500 119244.000000
3294 12057 1 0.16500 119244.000000
3294 13107 1 0.16500 119244.000000
3295 12058 1 0.16500 119244.000000
3295 13279 1 0.16500 119244.000000
3296 12058 1 0.16500 119244.000000
3296 14653 1 0.16500 119244.000000
3297 12058 1 0.16500 119244.000000
3297 13733 1 0.16500 119244.000000
3298 13001 1 0.16500 119244.000000
3298 13564 1 0.16500 119244.000000
3299 12059 1 0.16500 119244.000000
3299 12524 1 0.16500 119244.000000
3300 12059 1 0.16500 119244.000000
3300 13001 1 0.16500 119244.000000
3301 12059 1 0.16500 119244.000000
3301 18817 1 0.16500 119244.000000
3302 12978 1 0.16500 119244.000000
3302 19465 1 0.16500 119244.000000
3303 19465 1 0.16500 119244.000000
3303 19969 1 0.16500 119244.000000
3304 15113 1 0.16500 119244.000000
3304 19465 1 0.16500 119244.000000
3305 12060 1 0.16500 119244.000000
3305 15073 1 0.16500 119244.000000
3306 12060 1 0.16500 119244.000000
3306 13991 1 0.16500 119244.000000
3307 12060 1 0.16500 119244.000000
3307 14814 1 0.16500 119244.000000
3308 12060 1 0.16500 119244.000000
3308 12260 1 0.16500 119244.000000
3309 11892 1 0.16500 119244.000000
3309 12061 1 0.16500 119244.000000
3310 12061 1 0.16500 119244.000000
3310 12541 1 0.16500 119244.000000
3311 12061 1 0.16500 119244.000000
3311 13450 1 0.16500 119244.000000
3312 12061 1 0.16500 119244.000000
3312 15864 1 0.16500 119244.000000
3313 12062 1 0.16500 119244.000000
3313 15568 1 0.16500 119244.000000
3314 12062 1 0.16500 119244.000000
3314 15689 1 0.16500 119244.000000
3315 12062 1 0.16500 119244.000000
3315 12180 1 0.16500 119244.000000
3316 12062 1 0.16500 119244.000000
3316 15865 1 0.16500 119244.000000
3317 12063 1 0.16500 119244.000000
3317 14074 1 0.16500 119244.000000
3318 12063 1 0.16500 119244.000000
3318 15598 1 0.16500 119244.000000
3319 12063 1 0.16500 119244.000000
3319 14164 1 0.16500 119244.000000
3320 12064 1 0.16500 119244.000000
3320 15288 1 0.16500 119244.000000
3321 12064 1 0.16500 119244.000000
3321 15853 1 0.16500 119244.000000
3322 12064 1 0.16500 119244.000000
3322 13413 1 0.16500 119244.000000
3323 12065 1 0.16500 119244.000000
3323 14461 1 0.16500 119244.000000
3324 12065 1 0.16500 119244.000000
3324 12899 1 0.16500 119244.000000
3325 12066 1 0.16500 119244.000000
3325 13157 1 0.16500 119244.000000
3326 12066 1 0.16500 119244.000000
3326 14116 1 0.16500 119244.000000
3327 12066 1 0.16500 119244.000000
3327 13311 1 0.16500 119244.000000
3328 12884 1 0.16500 119244.000000
3328 14116 1 0.16500 119244.000000
3329 12067 1 0.16500 119244.000000
3329 13432 1 0.16500 119244.000000
3330 12067 1 0.16500 119244.000000
3330 13152 1 0.16500 119244.000000
3331 12067 1 0.16500 119244.000000
3331 12634 1 0.16500 119244.000000
3332 12067 1 0.16500 119244.000000
3332 18047 1 0.16500 119244.000000
3333 22393 1 0.16500 119244.000000
3333 23101 1 0.16500 119244.000000
3334 13806 1 0.16500 119244.000000
3334 23101 1 0.16500 119244.000000
3335 13769 1 0.16500 119244.000000
3335 23101 1 0.16500 119244.000000
3336 15118 1 0.16500 119244.000000
3336 21241 1 0.16500 119244.000000
3337 19501 1 0.16500 119244.000000
3337 21241 1 0.16500 119244.000000
3338 15316 1 0.16500 119244.000000
3338 18973 1 0.16500 119244.000000
3339 15674 1 0.16500 119244.000000
3339 18973 1 0.16500 119244.000000
3340 12068 1 0.16500 119244.000000
3340 13376 1 0.16500 119244.000000
3341 12068 1 0.16500 119244.000000
3341 12999 1 0.16500 119244.000000
3342 12068 1 0.16500 119244.000000
3342 13097 1 0.16500 119244.000000
3343 12068 1 0.16500 119244.000000
3343 15512 1 0.16500 119244.000000
3344 12069 1 0.16500 119244.000000
3344 13536 1 0.16500 119244.000000
3345 12069 1 0.16500 119244.000000
3345 24091 1 0.16500 119244.000000
3346 12069 1 0.16500 119244.000000
3346 12419 1 0.16500 119244.000000
3347 12069 1 0.16500 119244.000000
3347 17893 1 0.16500 119244.000000
3348 12070 1 0.16500 119244.000000
3348 14473 1 0.16500 119244.000000
3349 12070 1 0.16500 119244.000000
3349 14228 1 0.16500 119244.000000
3350 12070 1 0.16500 119244.000000
3350 12387 1 0.16500 119244.000000
3351 13573 1 0.16500 119244.000000
3351 23734 1 0.16500 119244.000000
3352 14914 1 0.16500 119244.000000
3352 23734 1 0.16500 119244.000000
3353 16000 1 0.16500 119244.000000
3353 23734 1 0.16500 119244.000000
3354 12071 1 0.16500 119244.000000
3354 14339 1 0.16500 119244.000000
3355 12071 1 0.16500 119244.000000
3355 15861 1 0.16500 119244.000000
3356 12071 1 0.16500 119244.000000
3356 14377 1 0.16500 119244.000000
3357 13803 1 0.16500 119244.000000
3357 16269 1 0.16500 119244.000000
3358 12072 1 0.16500 119244.000000
3358 23851 1 0.16500 119244.000000
3359 12072 1 0.16500 119244.000000
3359 13803 1 0.16500 119244.000000
3360 12072 1 0.16500 119244.000000
3360 12279 1 0.16500 119244.000000
3361 12073 1 0.16500 119244.000000
3361 14282 1 0.16500 119244.000000
3362 12073 1 0.16500 119244.000000
3362 15983 1 0.16500 119244.000000
3363 12073 1 0.16500 119244.000000
3363 12817 1 0.16500 119244.000000
3364 12074 1 0.16500 119244.000000
3364 12309 1 0.16500 119244.000000
3365 12074 1 0.16500 119244.000000
3365 19969 1 0.16500 119244.000000
3366 13285 1 0.16500 119244.000000
3366 16073 1 0.16500 119244.000000
3367 12074 1 0.16500 119244.000000
3367 13285 1 0.16500 119244.000000
3368 12075 1 0.16500 119244.000000
3368 12941 1 0.16500 119244.000000
3369 12075 1 0.16500 119244.000000
3369 12951 1 0.16500 119244.000000
3370 12075 1 0.16500 119244.000000
3370 15455 1 0.16500 119244.000000
3371 13145 1 0.16500 119244.000000
3371 20317 1 0.16500 119244.000000
3372 12076 1 0.16500 119244.000000
3372 21625 1 0.16500 119244.000000
3373 12076 1 0.16500 119244.000000
3373 12931 1 0.16500 119244.000000
3374 12076 1 0.16500 119244.000000
3374 12092 1 0.16500 119244.000000
3375 12076 1 0.16500 119244.000000
3375 15094 1 0.16500 119244.000000
3376 14330 1 0.16500 119244.000000
3376 19549 1 0.16500 119244.000000
3377 15060 1 0.16500 119244.000000
3377 19549 1 0.16500 119244.000000
3378 15019 1 0.16500 119244.000000
3378 19549 1 0.16500 119244.000000
3379 13130 1 0.16500 119244.000000
3379 23737 1 0.16500 119244.000000
3380 23737 1 0.16500 119244.000000
3380 24160 1 0.16500 119244.000000
3381 12077 1 0.16500 119244.000000
3381 14498 1 0.16500 119244.000000
3382 12077 1 0.16500 119244.000000
3382 14389 1 0.16500 119244.000000
3383 12077 1 0.16500 119244.000000
3383 12536 1 0.16500 119244.000000
3384 12077 1 0.16500 119244.000000
3384 13775 1 0.16500 119244.000000
3385 14676 1 0.16500 119244.000000
3385 21133 1 0.16500 119244.000000
3386 12586 1 0.16500 119244.000000
3386 21133 1 0.16500 119244.000000
3387 13220 1 0.16500 119244.000000
3387 21133 1 0.16500 119244.000000
3388 12078 1 0.16500 119244.000000
3388 15593 1 0.16500 119244.000000
3389 12078 1 0.16500 119244.000000
3389 12872 1 0.16500 119244.000000
3390 12078 1 0.16500 119244.000000
3390 14149 1 0.16500 119244.000000
3391 12078 1 0.16500 119244.000000
3391 13419 1 0.16500 119244.000000
3392 12079 1 0.16500 119244.000000
3392 13992 1 0.16500 119244.000000
3393 12079 1 0.16500 119244.000000
3393 12674 1 0.16500 119244.000000
3394 12079 1 0.16500 119244.000000
3394 16198 1 0.16500 119244.000000
3395 12079 1 0.16500 119244.000000
3395 13391 1 0.16500 119244.000000
3396 12080 1 0.16500 119244.000000
3396 12336 1 0.16500 119244.000000
3397 12080 1 0.16500 119244.000000
3397 13925 1 0.16500 119244.000000
3398 12080 1 0.16500 119244.000000
3398 16155 1 0.16500 119244.000000
3399 12081 1 0.16500 119244.000000
3399 15719 1 0.16500 119244.000000
3400 12081 1 0.16500 119244.000000
3400 13216 1 0.16500 119244.000000
3401 12081 1 0.16500 119244.000000
3401 13617 1 0.16500 119244.000000
3402 12082 1 0.16500 119244.000000
3402 14502 1 0.16500 119244.000000
3403 12082 1 0.16500 119244.000000
3403 13486 1 0.16500 119244.000000
3404 12082 1 0.16500 119244.000000
3404 14977 1 0.16500 119244.000000
3405 12082 1 0.16500 119244.000000
3405 13928 1 0.16500 119244.000000
3406 12083 1 0.16500 119244.000000
3406 15874 1 0.16500 119244.000000
3407 12373 1 0.16500 119244.000000
3407 14606 1 0.16500 119244.000000
3408 12084 1 0.16500 119244.000000
3408 12373 1 0.16500 119244.000000
3409 12084 1 0.16500 119244.000000
3409 14938 1 0.16500 119244.000000
3410 12085 1 0.16500 119244.000000
3410 15926 1 0.16500 119244.000000
3411 12085 1 0.16500 119244.000000
3411 16098 1 0.16500 119244.000000
3412 12085 1 0.16500 119244.000000
3412 14180 1 0.16500 119244.000000
3413 12085 1 0.16500 119244.000000
3413 16004 1 0.16500 119244.000000
3414 12086 1 0.16500 119244.000000
3414 12820 1 0.16500 119244.000000
3415 12820 1 0.16500 119244.000000
3415 13812 1 0.16500 119244.000000
3416 12086 1 0.16500 119244.000000
3416 12645 1 0.16500 119244.000000
3417 14392 1 0.16500 119244.000000
3417 23740 1 0.16500 119244.000000
3418 20353 1 0.16500 119244.000000
3418 23740 1 0.16500 119244.000000
3419 23740 1 0.16500 119244.000000
3419 23896 1 0.16500 119244.000000
3420 12087 1 0.16500 119244.000000
3420 14357 1 0.16500 119244.000000
3421 12087 1 0.16500 119244.000000
3421 14778 1 0.16500 119244.000000
3422 12087 1 0.16500 119244.000000
3422 15320 1 0.16500 119244.000000
3423 12087 1 0.16500 119244.000000
3423 15357 1 0.16500 119244.000000
3424 15305 1 0.16500 119244.000000
3424 22669 1 0.16500 119244.000000
3425 22669 1 0.16500 119244.000000
3425 23950 1 0.16500 119244.000000
3426 12088 1 0.16500 119244.000000
3426 15169 1 0.16500 119244.000000
3427 12088 1 0.16500 119244.000000
3427 13742 1 0.16500 119244.000000
3428 12088 1 0.16500 119244.000000
3428 15663 1 0.16500 119244.000000
3429 12088 1 0.16500 119244.000000
3429 14386 1 0.16500 119244.000000
3430 14996 1 0.16500 119244.000000
3430 16395 1 0.16500 119244.000000
3431 14130 1 0.16500 119244.000000
3431 16395 1 0.16500 119244.000000
3432 11956 1 0.16500 119244.000000
3432 12089 1 0.16500 119244.000000
3433 12089 1 0.16500 119244.000000
3433 13805 1 0.16500 119244.000000
3434 12102 1 0.16500 119244.000000
3434 23719 1 0.16500 119244.000000
3435 12090 1 0.16500 119244.000000
3435 14415 1 0.16500 119244.000000
3436 12090 1 0.16500 119244.000000
3436 12129 1 0.16500 119244.000000
3437 12090 1 0.16500 119244.000000
3437 14593 1 0.16500 119244.000000
3438 12090 1 0.16500 119244.000000
3438 14353 1 0.16500 119244.000000
3439 12091 1 0.16500 119244.000000
3439 12674 1 0.16500 119244.000000
3440 12091 1 0.16500 119244.000000
3440 12724 1 0.16500 119244.000000
3441 12091 1 0.16500 119244.000000
3441 16071 1 0.16500 119244.000000
3442 12091 1 0.16500 119244.000000
3442 15149 1 0.16500 119244.000000
3443 12092 1 0.16500 119244.000000
3443 23293 1 0.16500 119244.000000
3444 12093 1 0.16500 119244.000000
3444 12799 1 0.16500 119244.000000
3445 12093 1 0.16500 119244.000000
3445 13186 1 0.16500 119244.000000
3446 12093 1 0.16500 119244.000000
3446 13437 1 0.16500 119244.000000
3447 12093 1 0.16500 119244.000000
3447 13244 1 0.16500 119244.000000
3448 12094 1 0.16500 119244.000000
3448 12686 1 0.16500 119244.000000
3449 12094 1 0.16500 119244.000000
3449 14257 1 0.16500 119244.000000
3450 12035 1 0.16500 119244.000000
3450 12094 1 0.16500 119244.000000
3451 12094 1 0.16500 119244.000000
3451 15347 1 0.16500 119244.000000
3452 12095 1 0.16500 119244.000000
3452 14281 1 0.16500 119244.000000
3453 12095 1 0.16500 119244.000000
3453 13000 1 0.16500 119244.000000
3454 12096 1 0.16500 119244.000000
3454 14396 1 0.16500 119244.000000
3455 12096 1 0.16500 119244.000000
3455 12126 1 0.16500 119244.000000
3456 12096 1 0.16500 119244.000000
3456 15412 1 0.16500 119244.000000
3457 12097 1 0.16500 119244.000000
3457 15859 1 0.16500 119244.000000
3458 14418 1 0.16500 119244.000000
3458 16206 1 0.16500 119244.000000
3459 12097 1 0.16500 119244.000000
3459 12646 1 0.16500 119244.000000
3460 12098 1 0.16500 119244.000000
3460 15311 1 0.16500 119244.000000
3461 12098 1 0.16500 119244.000000
3461 13971 1 0.16500 119244.000000
3462 12098 1 0.16500 119244.000000
3462 15509 1 0.16500 119244.000000
3463 12098 1 0.16500 119244.000000
3463 24283 1 0.16500 119244.000000
3464 11416 1 0.16500 119244.000000
3464 12099 1 0.16500 119244.000000
3465 12099 1 0.16500 119244.000000
3465 14463 1 0.16500 119244.000000
3466 12099 1 0.16500 119244.000000
3466 14819 1 0.16500 119244.000000
3467 12099 1 0.16500 119244.000000
3467 15654 1 0.16500 119244.000000
3468 12100 1 0.16500 119244.000000
3468 15579 1 0.16500 119244.000000
3469 12100 1 0.16500 119244.000000
3469 13797 1 0.16500 119244.000000
3470 12100 1 0.16500 119244.000000
3470 21109 1 0.16500 119244.000000
3471 12101 1 0.16500 119244.000000
3471 13296 1 0.16500 119244.000000
3472 12101 1 0.16500 119244.000000
3472 14639 1 0.16500 119244.000000
3473 12101 1 0.16500 119244.000000
3473 14635 1 0.16500 119244.000000
3474 12101 1 0.16500 119244.000000
3474 13114 1 0.16500 119244.000000
3475 12102 1 0.16500 119244.000000
3475 15284 1 0.16500 119244.000000
3476 12102 1 0.16500 119244.000000
3476 14023 1 0.16500 119244.000000
3477 12176 1 0.16500 119244.000000
3477 20053 1 0.16500 119244.000000
3478 19993 1 0.16500 119244.000000
3478 20053 1 0.16500 119244.000000
3479 19069 1 0.16500 119244.000000
3479 20053 1 0.16500 119244.000000
3480 12103 1 0.16500 119244.000000
3480 13117 1 0.16500 119244.000000
3481 12103 1 0.16500 119244.000000
3481 15588 1 0.16500 119244.000000
3482 12103 1 0.16500 119244.000000
3482 13903 1 0.16500 119244.000000
3483 12103 1 0.16500 119244.000000
3483 13626 1 0.16500 119244.000000
3484 12104 1 0.16500 119244.000000
3484 14599 1 0.16500 119244.000000
3485 12104 1 0.16500 119244.000000
3485 16268 1 0.16500 119244.000000
3486 15132 1 0.16500 119244.000000
3486 23743 1 0.16500 119244.000000
3487 13112 1 0.16500 119244.000000
3487 23743 1 0.16500 119244.000000
3488 14512 1 0.16500 119244.000000
3488 23743 1 0.16500 119244.000000
3489 12105 1 0.16500 119244.000000
3489 16104 1 0.16500 119244.000000
3490 12105 1 0.16500 119244.000000
3490 16745 1 0.16500 119244.000000
3491 12105 1 0.16500 119244.000000
3491 12911 1 0.16500 119244.000000
3492 20413 1 0.16500 119244.000000
3492 22897 1 0.16500 119244.000000
3493 20413 1 0.16500 119244.000000
3493 24145 1 0.16500 119244.000000
3494 15826 1 0.16500 119244.000000
3494 23986 1 0.16500 119244.000000
3495 12106 1 0.16500 119244.000000
3495 13402 1 0.16500 119244.000000
3496 12106 1 0.16500 119244.000000
3496 14790 1 0.16500 119244.000000
3497 12106 1 0.16500 119244.000000
3497 15492 1 0.16500 119244.000000
3498 12106 1 0.16500 119244.000000
3498 14590 1 0.16500 119244.000000
3499 12107 1 0.16500 119244.000000
3499 15941 1 0.16500 119244.000000
3500 12107 1 0.16500 119244.000000
3500 18901 1 0.16500 119244.000000
3501 12107 1 0.16500 119244.000000
3501 13600 1 0.16500 119244.000000
3502 12107 1 0.16500 119244.000000
3502 14556 1 0.16500 119244.000000
3503 12108 1 0.16500 119244.000000
3503 13233 1 0.16500 119244.000000
3504 12108 1 0.16500 119244.000000
3504 24397 1 0.16500 119244.000000
3505 12108 1 0.16500 119244.000000
3505 15781 1 0.16500 119244.000000
3506 12109 1 0.16500 119244.000000
3506 13999 1 0.16500 119244.000000
3507 12109 1 0.16500 119244.000000
3507 14731 1 0.16500 119244.000000
3508 12109 1 0.16500 119244.000000
3508 14586 1 0.16500 119244.000000
3509 12109 1 0.16500 119244.000000
3509 15554 1 0.16500 119244.000000
3510 12110 1 0.16500 119244.000000
3510 13555 1 0.16500 119244.000000
3511 12110 1 0.16500 119244.000000
3511 13568 1 0.16500 119244.000000
3512 12110 1 0.16500 119244.000000
3512 14736 1 0.16500 119244.000000
3513 12110 1 0.16500 119244.000000
3513 16005 1 0.16500 119244.000000
3514 12111 1 0.16500 119244.000000
3514 14633 1 0.16500 119244.000000
3515 12111 1 0.16500 119244.000000
3515 15577 1 0.16500 119244.000000
3516 12112 1 0.16500 119244.000000
3516 15073 1 0.16500 119244.000000
3517 12112 1 0.16500 119244.000000
3517 12416 1 0.16500 119244.000000
3518 12113 1 0.16500 119244.000000
3518 13916 1 0.16500 119244.000000
3519 12113 1 0.16500 119244.000000
3519 23113 1 0.16500 119244.000000
3520 12113 1 0.16500 119244.000000
3520 12783 1 0.16500 119244.000000
3521 12114 1 0.16500 119244.000000
3521 15522 1 0.16500 119244.000000
3522 12114 1 0.16500 119244.000000
3522 13113 1 0.16500 119244.000000
3523 12114 1 0.16500 119244.000000
3523 15632 1 0.16500 119244.000000
3524 12114 1 0.16500 119244.000000
3524 15626 1 0.16500 119244.000000
3525 23017 1 0.16500 119244.000000
3525 23746 1 0.16500 119244.000000
3526 15122 1 0.16500 119244.000000
3526 23746 1 0.16500 119244.000000
3527 23746 1 0.16500 119244.000000
3527 24112 1 0.16500 119244.000000
3528 12115 1 0.16500 119244.000000
3528 16139 1 0.16500 119244.000000
3529 12115 1 0.16500 119244.000000
3529 15873 1 0.16500 119244.000000
3530 12115 1 0.16500 119244.000000
3530 15353 1 0.16500 119244.000000
3531 12116 1 0.16500 119244.000000
3531 13641 1 0.16500 119244.000000
3532 12116 1 0.16500 119244.000000
3532 13007 1 0.16500 119244.000000
3533 12116 1 0.16500 119244.000000
3533 13450 1 0.16500 119244.000000
3534 12116 1 0.16500 119244.000000
3534 15467 1 0.16500 119244.000000
3535 12117 1 0.16500 119244.000000
3535 12555 1 0.16500 119244.000000
3536 12117 1 0.16500 119244.000000
3536 16268 1 0.16500 119244.000000
3537 12117 1 0.16500 119244.000000
3537 16899 1 0.16500 119244.000000
3538 12118 1 0.16500 119244.000000
3538 16195 1 0.16500 119244.000000
3539 12118 1 0.16500 119244.000000
3539 23827 1 0.16500 119244.000000
3540 12118 1 0.16500 119244.000000
3540 17571 1 0.16500 119244.000000
3541 12118 1 0.16500 119244.000000
3541 13872 1 0.16500 119244.000000
3542 12119 1 0.16500 119244.000000
3542 12296 1 0.16500 119244.000000
3543 12119 1 0.16500 119244.000000
3543 17795 1 0.16500 119244.000000
3544 12119 1 0.16500 119244.000000
3544 14068 1 0.16500 119244.000000
3545 12119 1 0.16500 119244.000000
3545 14274 1 0.16500 119244.000000
3546 12120 1 0.16500 119244.000000
3546 15665 1 0.16500 119244.000000
3547 12120 1 0.16500 119244.000000
3547 12464 1 0.16500 119244.000000
3548 12120 1 0.16500 119244.000000
3548 14492 1 0.16500 119244.000000
3549 12121 1 0.16500 119244.000000
3549 22729 1 0.16500 119244.000000
3550 12121 1 0.16500 119244.000000
3550 14423 1 0.16500 119244.000000
3551 12121 1 0.16500 119244.000000
3551 14541 1 0.16500 119244.000000
3552 12121 1 0.16500 119244.000000
3552 15178 1 0.16500 119244.000000
3553 12122 1 0.16500 119244.000000
3553 14014 1 0.16500 119244.000000
3554 12122 1 0.16500 119244.000000
3554 13516 1 0.16500 119244.000000
3555 12123 1 0.16500 119244.000000
3555 15997 1 0.16500 119244.000000
3556 12123 1 0.16500 119244.000000
3556 12350 1 0.16500 119244.000000
3557 12123 1 0.16500 119244.000000
3557 16044 1 0.16500 119244.000000
3558 12123 1 0.16500 119244.000000
3558 14760 1 0.16500 119244.000000
3559 18445 1 0.16500 119244.000000
3559 23749 1 0.16500 119244.000000
3560 23749 1 0.16500 119244.000000
3560 24462 1 0.16500 119244.000000
3561 13536 1 0.16500 119244.000000
3561 23749 1 0.16500 119244.000000
3562 15581 1 0.16500 119244.000000
3562 16196 1 0.16500 119244.000000
3563 12124 1 0.16500 119244.000000
3563 12212 1 0.16500 119244.000000
3564 12124 1 0.16500 119244.000000
3564 15581 1 0.16500 119244.000000
3565 12707 1 0.16500 119244.000000
3565 15581 1 0.16500 119244.000000
3566 13383 1 0.16500 119244.000000
3566 23752 1 0.16500 119244.000000
3567 20677 1 0.16500 119244.000000
3567 23752 1 0.16500 119244.000000
3568 19705 1 0.16500 119244.000000
3568 23752 1 0.16500 119244.000000
3569 24289 1 0.16500 119244.000000
3569 24342 1 0.16500 119244.000000
3570 19141 1 0.16500 119244.000000
3570 24342 1 0.16500 119244.000000
3571 12125 1 0.16500 119244.000000
3571 14354 1 0.16500 119244.000000
3572 12125 1 0.16500 119244.000000
3572 13110 1 0.16500 119244.000000
3573 12125 1 0.16500 119244.000000
3573 14196 1 0.16500 119244.000000
3574 12125 1 0.16500 119244.000000
3574 12360 1 0.16500 119244.000000
3575 12126 1 0.16500 119244.000000
3575 12688 1 0.16500 119244.000000
3576 12126 1 0.16500 119244.000000
3576 15984 1 0.16500 119244.000000
3577 11642 1 0.16500 119244.000000
3577 13117 1 0.16500 119244.000000
3578 12127 1 0.16500 119244.000000
3578 13232 1 0.16500 119244.000000
3579 12127 1 0.16500 119244.000000
3579 13903 1 0.16500 119244.000000
3580 12128 1 0.16500 119244.000000
3580 15939 1 0.16500 119244.000000
3581 12128 1 0.16500 119244.000000
3581 15391 1 0.16500 119244.000000
3582 12128 1 0.16500 119244.000000
3582 15153 1 0.16500 119244.000000
3583 12129 1 0.16500 119244.000000
3583 14127 1 0.16500 119244.000000
3584 12130 1 0.16500 119244.000000
3584 14928 1 0.16500 119244.000000
3585 12130 1 0.16500 119244.000000
3585 15338 1 0.16500 119244.000000
3586 12130 1 0.16500 119244.000000
3586 12797 1 0.16500 119244.000000
3587 12923 1 0.16500 119244.000000
3587 16011 1 0.16500 119244.000000
3588 12131 1 0.16500 119244.000000
3588 12923 1 0.16500 119244.000000
3589 12131 1 0.16500 119244.000000
3589 16105 1 0.16500 119244.000000
3590 12131 1 0.16500 119244.000000
3590 13029 1 0.16500 119244.000000
3591 12132 1 0.16500 119244.000000
3591 15273 1 0.16500 119244.000000
3592 12132 1 0.16500 119244.000000
3592 12450 1 0.16500 119244.000000
3593 12132 1 0.16500 119244.000000
3593 12784 1 0.16500 119244.000000
3594 12132 1 0.16500 119244.000000
3594 14935 1 0.16500 119244.000000
3595 12133 1 0.16500 119244.000000
3595 13586 1 0.16500 119244.000000
3596 12133 1 0.16500 119244.000000
3596 15674 1 0.16500 119244.000000
3597 12133 1 0.16500 119244.000000
3597 14162 1 0.16500 119244.000000
3598 12134 1 0.16500 119244.000000
3598 14690 1 0.16500 119244.000000
3599 12134 1 0.16500 119244.000000
3599 12310 1 0.16500 119244.000000
3600 12134 1 0.16500 119244.000000
3600 12223 1 0.16500 119244.000000
3601 17375 1 0.16500 119244.000000
3601 21937 1 0.16500 119244.000000
3602 12135 1 0.16500 119244.000000
3602 14379 1 0.16500 119244.000000
3603 12135 1 0.16500 119244.000000
3603 23509 1 0.16500 119244.000000
3604 12135 1 0.16500 119244.000000
3604 20557 1 0.16500 119244.000000
3605 12136 1 0.16500 119244.000000
3605 14100 1 0.16500 119244.000000
3606 12136 1 0.16500 119244.000000
3606 13750 1 0.16500 119244.000000
3607 12136 1 0.16500 119244.000000
3607 14137 1 0.16500 119244.000000
3608 12136 1 0.16500 119244.000000
3608 14019 1 0.16500 119244.000000
3609 12137 1 0.16500 119244.000000
3609 14886 1 0.16500 119244.000000
3610 12137 1 0.16500 119244.000000
3610 13953 1 0.16500 119244.000000
3611 12137 1 0.16500 119244.000000
3611 15779 1 0.16500 119244.000000
3612 12137 1 0.16500 119244.000000
3612 15061 1 0.16500 119244.000000
3613 12138 1 0.16500 119244.000000
3613 14603 1 0.16500 119244.000000
3614 12138 1 0.16500 119244.000000
3614 12531 1 0.16500 119244.000000
3615 12138 1 0.16500 119244.000000
3615 14716 1 0.16500 119244.000000
3616 12138 1 0.16500 119244.000000
3616 13074 1 0.16500 119244.000000
3617 11605 1 0.16500 119244.000000
3617 14813 1 0.16500 119244.000000
3618 12139 1 0.16500 119244.000000
3618 13466 1 0.16500 119244.000000
3619 12139 1 0.16500 119244.000000
3619 12763 1 0.16500 119244.000000
3620 12140 1 0.16500 119244.000000
3620 14967 1 0.16500 119244.000000
3621 12140 1 0.16500 119244.000000
3621 14240 1 0.16500 119244.000000
3622 12140 1 0.16500 119244.000000
3622 15387 1 0.16500 119244.000000
3623 12141 1 0.16500 119244.000000
3623 12437 1 0.16500 119244.000000
3624 12141 1 0.16500 119244.000000
3624 15429 1 0.16500 119244.000000
3625 15429 1 0.16500 119244.000000
3625 20605 1 0.16500 119244.000000
3626 12141 1 0.16500 119244.000000
3626 19285 1 0.16500 119244.000000
3627 16619 1 0.16500 119244.000000
3627 22609 1 0.16500 119244.000000
3628 21169 1 0.16500 119244.000000
3628 22513 1 0.16500 119244.000000
3629 12142 1 0.16500 119244.000000
3629 13515 1 0.16500 119244.000000
3630 13515 1 0.16500 119244.000000
3630 15298 1 0.16500 119244.000000
3631 12142 1 0.16500 119244.000000
3631 14941 1 0.16500 119244.000000
3632 12143 1 0.16500 119244.000000
3632 12611 1 0.16500 119244.000000
3633 12143 1 0.16500 119244.000000
3633 24295 1 0.16500 119244.000000
3634 12143 1 0.16500 119244.000000
3634 13461 1 0.16500 119244.000000
3635 24088 1 0.16500 119244.000000
3635 24295 1 0.16500 119244.000000
3636 12144 1 0.16500 119244.000000
3636 15681 1 0.16500 119244.000000
3637 12144 1 0.16500 119244.000000
3637 13791 1 0.16500 119244.000000
3638 12145 1 0.16500 119244.000000
3638 15380 1 0.16500 119244.000000
3639 12145 1 0.16500 119244.000000
3639 15400 1 0.16500 119244.000000
3640 12145 1 0.16500 119244.000000
3640 15915 1 0.16500 119244.000000
3641 12145 1 0.16500 119244.000000
3641 13915 1 0.16500 119244.000000
3642 15255 1 0.16500 119244.000000
3642 18949 1 0.16500 119244.000000
3643 14750 1 0.16500 119244.000000
3643 18949 1 0.16500 119244.000000
3644 16325 1 0.16500 119244.000000
3644 23173 1 0.16500 119244.000000
3645 21325 1 0.16500 119244.000000
3645 23173 1 0.16500 119244.000000
3646 12146 1 0.16500 119244.000000
3646 13997 1 0.16500 119244.000000
3647 12146 1 0.16500 119244.000000
3647 13205 1 0.16500 119244.000000
3648 12146 1 0.16500 119244.000000
3648 12707 1 0.16500 119244.000000
3649 12147 1 0.16500 119244.000000
3649 12997 1 0.16500 119244.000000
3650 12147 1 0.16500 119244.000000
3650 14948 1 0.16500 119244.000000
3651 12148 1 0.16500 119244.000000
3651 15535 1 0.16500 119244.000000
3652 12148 1 0.16500 119244.000000
3652 12272 1 0.16500 119244.000000
3653 12148 1 0.16500 119244.000000
3653 15953 1 0.16500 119244.000000
3654 12149 1 0.16500 119244.000000
3654 12933 1 0.16500 119244.000000
3655 11755 1 0.16500 119244.000000
3655 13593 1 0.16500 119244.000000
3656 12149 1 0.16500 119244.000000
3656 13762 1 0.16500 119244.000000
3657 12149 1 0.16500 119244.000000
3657 13593 1 0.16500 119244.000000
3658 12150 1 0.16500 119244.000000
3658 15960 1 0.16500 119244.000000
3659 12150 1 0.16500 119244.000000
3659 14740 1 0.16500 119244.000000
3660 12150 1 0.16500 119244.000000
3660 14820 1 0.16500 119244.000000
3661 12151 1 0.16500 119244.000000
3661 14539 1 0.16500 119244.000000
3662 12151 1 0.16500 119244.000000
3662 15387 1 0.16500 119244.000000
3663 12151 1 0.16500 119244.000000
3663 14740 1 0.16500 119244.000000
3664 12152 1 0.16500 119244.000000
3664 12362 1 0.16500 119244.000000
3665 12152 1 0.16500 119244.000000
3665 13074 1 0.16500 119244.000000
3666 12152 1 0.16500 119244.000000
3666 13585 1 0.16500 119244.000000
3667 12152 1 0.16500 119244.000000
3667 13789 1 0.16500 119244.000000
3668 12153 1 0.16500 119244.000000
3668 14505 1 0.16500 119244.000000
3669 12153 1 0.16500 119244.000000
3669 14380 1 0.16500 119244.000000
3670 12153 1 0.16500 119244.000000
3670 12239 1 0.16500 119244.000000
3671 12153 1 0.16500 119244.000000
3671 15789 1 0.16500 119244.000000
3672 12154 1 0.16500 119244.000000
3672 12910 1 0.16500 119244.000000
3673 12154 1 0.16500 119244.000000
3673 14189 1 0.16500 119244.000000
3674 12154 1 0.16500 119244.000000
3674 13935 1 0.16500 119244.000000
3675 12154 1 0.16500 119244.000000
3675 14239 1 0.16500 119244.000000
3676 16041 1 0.16500 119244.000000
3676 23755 1 0.16500 119244.000000
3677 19333 1 0.16500 119244.000000
3677 23755 1 0.16500 119244.000000
3678 12155 1 0.16500 119244.000000
3678 15185 1 0.16500 119244.000000
3679 12155 1 0.16500 119244.000000
3679 12525 1 0.16500 119244.000000
3680 12155 1 0.16500 119244.000000
3680 15320 1 0.16500 119244.000000
3681 12156 1 0.16500 119244.000000
3681 15262 1 0.16500 119244.000000
3682 12156 1 0.16500 119244.000000
3682 13588 1 0.16500 119244.000000
3683 12157 1 0.16500 119244.000000
3683 15635 1 0.16500 119244.000000
3684 12157 1 0.16500 119244.000000
3684 15864 1 0.16500 119244.000000
3685 12157 1 0.16500 119244.000000
3685 15218 1 0.16500 119244.000000
3686 12158 1 0.16500 119244.000000
3686 12582 1 0.16500 119244.000000
3687 12158 1 0.16500 119244.000000
3687 12333 1 0.16500 119244.000000
3688 12159 1 0.16500 119244.000000
3688 12586 1 0.16500 119244.000000
3689 12159 1 0.16500 119244.000000
3689 15394 1 0.16500 119244.000000
3690 12159 1 0.16500 119244.000000
3690 15664 1 0.16500 119244.000000
3691 12160 1 0.16500 119244.000000
3691 14117 1 0.16500 119244.000000
3692 12160 1 0.16500 119244.000000
3692 15052 1 0.16500 119244.000000
3693 12160 1 0.16500 119244.000000
3693 12892 1 0.16500 119244.000000
3694 12161 1 0.16500 119244.000000
3694 16059 1 0.16500 119244.000000
3695 11403 1 0.16500 119244.000000
3695 12161 1 0.16500 119244.000000
3696 12161 1 0.16500 119244.000000
3696 14509 1 0.16500 119244.000000
3697 12161 1 0.16500 119244.000000
3697 16077 1 0.16500 119244.000000
3698 12162 1 0.16500 119244.000000
3698 13488 1 0.16500 119244.000000
3699 12162 1 0.16500 119244.000000
3699 13435 1 0.16500 119244.000000
3700 12162 1 0.16500 119244.000000
3700 14856 1 0.16500 119244.000000
3701 12162 1 0.16500 119244.000000
3701 12401 1 0.16500 119244.000000
3702 12163 1 0.16500 119244.000000
3702 13100 1 0.16500 119244.000000
3703 12163 1 0.16500 119244.000000
3703 13626 1 0.16500 119244.000000
3704 12164 1 0.16500 119244.000000
3704 14600 1 0.16500 119244.000000
3705 12164 1 0.16500 119244.000000
3705 15584 1 0.16500 119244.000000
3706 12164 1 0.16500 119244.000000
3706 12228 1 0.16500 119244.000000
3707 12164 1 0.16500 119244.000000
3707 13373 1 0.16500 119244.000000
3708 12876 1 0.16500 119244.000000
3708 13813 1 0.16500 119244.000000
3709 12165 1 0.16500 119244.000000
3709 12876 1 0.16500 119244.000000
3710 12165 1 0.16500 119244.000000
3710 16216 1 0.16500 119244.000000
3711 12165 1 0.16500 119244.000000
3711 15723 1 0.16500 119244.000000
3712 12166 1 0.16500 119244.000000
3712 13104 1 0.16500 119244.000000
3713 12166 1 0.16500 119244.000000
3713 12543 1 0.16500 119244.000000
3714 13104 1 0.16500 119244.000000
3714 13792 1 0.16500 119244.000000
3715 12166 1 0.16500 119244.000000
3715 14838 1 0.16500 119244.000000
3716 12167 1 0.16500 119244.000000
3716 15609 1 0.16500 119244.000000
3717 12167 1 0.16500 119244.000000
3717 12605 1 0.16500 119244.000000
3718 12167 1 0.16500 119244.000000
3718 15853 1 0.16500 119244.000000
3719 12167 1 0.16500 119244.000000
3719 13147 1 0.16500 119244.000000
3720 12168 1 0.16500 119244.000000
3720 13340 1 0.16500 119244.000000
3721 12168 1 0.16500 119244.000000
3721 12379 1 0.16500 119244.000000
3722 12168 1 0.16500 119244.000000
3722 13759 1 0.16500 119244.000000
3723 12169 1 0.16500 119244.000000
3723 14002 1 0.16500 119244.000000
3724 12169 1 0.16500 119244.000000
3724 13708 1 0.16500 119244.000000
3725 12169 1 0.16500 119244.000000
3725 12484 1 0.16500 119244.000000
3726 12170 1 0.16500 119244.000000
3726 15181 1 0.16500 119244.000000
3727 12170 1 0.16500 119244.000000
3727 22273 1 0.16500 119244.000000
3728 12171 1 0.16500 119244.000000
3728 13174 1 0.16500 119244.000000
3729 13013 1 0.16500 119244.000000
3729 13174 1 0.16500 119244.000000
3730 12171 1 0.16500 119244.000000
3730 15013 1 0.16500 119244.000000
3731 12171 1 0.16500 119244.000000
3731 15901 1 0.16500 119244.000000
3732 12172 1 0.16500 119244.000000
3732 16138 1 0.16500 119244.000000
3733 12172 1 0.16500 119244.000000
3733 12725 1 0.16500 119244.000000
3734 12172 1 0.16500 119244.000000
3734 14094 1 0.16500 119244.000000
3735 12172 1 0.16500 119244.000000
3735 16177 1 0.16500 119244.000000
3736 23758 1 0.16500 119244.000000
3736 24301 1 0.16500 119244.000000
3737 15606 1 0.16500 119244.000000
3737 23758 1 0.16500 119244.000000
3738 12173 1 0.16500 119244.000000
3738 16231 1 0.16500 119244.000000
3739 12072 1 0.16500 119244.000000
3739 12173 1 0.16500 119244.000000
3740 12173 1 0.16500 119244.000000
3740 22921 1 0.16500 119244.000000
3741 12174 1 0.16500 119244.000000
3741 14061 1 0.16500 119244.000000
3742 12174 1 0.16500 119244.000000
3742 15774 1 0.16500 119244.000000
3743 12174 1 0.16500 119244.000000
3743 12681 1 0.16500 119244.000000
3744 12174 1 0.16500 119244.000000
3744 15241 1 0.16500 119244.000000
3745 12175 1 0.16500 119244.000000
3745 14619 1 0.16500 119244.000000
3746 12175 1 0.16500 119244.000000
3746 16221 1 0.16500 119244.000000
3747 12175 1 0.16500 119244.000000
3747 12840 1 0.16500 119244.000000
3748 12175 1 0.16500 119244.000000
3748 16164 1 0.16500 119244.000000
3749 12176 1 0.16500 119244.000000
3749 12703 1 0.16500 119244.000000
3750 12176 1 0.16500 119244.000000
3750 16178 1 0.16500 119244.000000
3751 12177 1 0.16500 119244.000000
3751 21793 1 0.16500 119244.000000
3752 12177 1 0.16500 119244.000000
3752 16115 1 0.16500 119244.000000
3753 12177 1 0.16500 119244.000000
3753 12546 1 0.16500 119244.000000
3754 12177 1 0.16500 119244.000000
3754 12224 1 0.16500 119244.000000
3755 12178 1 0.16500 119244.000000
3755 13393 1 0.16500 119244.000000
3756 12178 1 0.16500 119244.000000
3756 13982 1 0.16500 119244.000000
3757 12178 1 0.16500 119244.000000
3757 15863 1 0.16500 119244.000000
3758 12178 1 0.16500 119244.000000
3758 12442 1 0.16500 119244.000000
3759 11864 1 0.16500 119244.000000
3759 12406 1 0.16500 119244.000000
3760 12179 1 0.16500 119244.000000
3760 14612 1 0.16500 119244.000000
3761 12179 1 0.16500 119244.000000
3761 15981 1 0.16500 119244.000000
3762 12180 1 0.16500 119244.000000
3762 13129 1 0.16500 119244.000000
3763 12180 1 0.16500 119244.000000
3763 15789 1 0.16500 119244.000000
3764 12181 1 0.16500 119244.000000
3764 13923 1 0.16500 119244.000000
3765 12181 1 0.16500 119244.000000
3765 15701 1 0.16500 119244.000000
3766 12182 1 0.16500 119244.000000
3766 13455 1 0.16500 119244.000000
3767 12182 1 0.16500 119244.000000
3767 13684 1 0.16500 119244.000000
3768 12182 1 0.16500 119244.000000
3768 14851 1 0.16500 119244.000000
3769 12182 1 0.16500 119244.000000
3769 14426 1 0.16500 119244.000000
3770 11473 1 0.16500 119244.000000
3770 15330 1 0.16500 119244.000000
3771 19753 1 0.16500 119244.000000
3771 23932 1 0.16500 119244.000000
3772 14047 1 0.16500 119244.000000
3772 19753 1 0.16500 119244.000000
3773 12184 1 0.16500 119244.000000
3773 22333 1 0.16500 119244.000000
3774 12184 1 0.16500 119244.000000
3774 13400 1 0.16500 119244.000000
3775 12184 1 0.16500 119244.000000
3775 19765 1 0.16500 119244.000000
3776 12185 1 0.16500 119244.000000
3776 16229 1 0.16500 119244.000000
3777 12185 1 0.16500 119244.000000
3777 12585 1 0.16500 119244.000000
3778 12185 1 0.16500 119244.000000
3778 12601 1 0.16500 119244.000000
3779 12185 1 0.16500 119244.000000
3779 23893 1 0.16500 119244.000000
3780 12186 1 0.16500 119244.000000
3780 15207 1 0.16500 119244.000000
3781 12186 1 0.16500 119244.000000
3781 13992 1 0.16500 119244.000000
3782 12186 1 0.16500 119244.000000
3782 15295 1 0.16500 119244.000000
3783 12186 1 0.16500 119244.000000
3783 12433 1 0.16500 119244.000000
3784 12187 1 0.16500 119244.000000
3784 15965 1 0.16500 119244.000000
3785 12187 1 0.16500 119244.000000
3785 15677 1 0.16500 119244.000000
3786 12187 1 0.16500 119244.000000
3786 13276 1 0.16500 119244.000000
3787 12188 1 0.16500 119244.000000
3787 13045 1 0.16500 119244.000000
3788 12188 1 0.16500 119244.000000
3788 12193 1 0.16500 119244.000000
3789 12188 1 0.16500 119244.000000
3789 12768 1 0.16500 119244.000000
3790 12189 1 0.16500 119244.000000
3790 12861 1 0.16500 119244.000000
3791 12189 1 0.16500 119244.000000
3791 14838 1 0.16500 119244.000000
3792 12189 1 0.16500 119244.000000
3792 14287 1 0.16500 119244.000000
3793 12190 1 0.16500 119244.000000
3793 14366 1 0.16500 119244.000000
3794 12190 1 0.16500 119244.000000
3794 12639 1 0.16500 119244.000000
3795 12190 1 0.16500 119244.000000
3795 15721 1 0.16500 119244.000000
3796 11583 1 0.16500 119244.000000
3796 12190 1 0.16500 119244.000000
3797 12191 1 0.16500 119244.000000
3797 13143 1 0.16500 119244.000000
3798 12191 1 0.16500 119244.000000
3798 12374 1 0.16500 119244.000000
3799 12191 1 0.16500 119244.000000
3799 12997 1 0.16500 119244.000000
3800 12191 1 0.16500 119244.000000
3800 15974 1 0.16500 119244.000000
3801 12192 1 0.16500 119244.000000
3801 15595 1 0.16500 119244.000000
3802 12192 1 0.16500 119244.000000
3802 12788 1 0.16500 119244.000000
3803 12192 1 0.16500 119244.000000
3803 13412 1 0.16500 119244.000000
3804 12192 1 0.16500 119244.000000
3804 13432 1 0.16500 119244.000000
3805 12188 1 0.16500 119244.000000
3805 12213 1 0.16500 119244.000000
3806 12193 1 0.16500 119244.000000
3806 12652 1 0.16500 119244.000000
3807 12193 1 0.16500 119244.000000
3807 14808 1 0.16500 119244.000000
3808 12194 1 0.16500 119244.000000
3808 14794 1 0.16500 119244.000000
3809 12194 1 0.16500 119244.000000
3809 14503 1 0.16500 119244.000000
3810 12194 1 0.16500 119244.000000
3810 12499 1 0.16500 119244.000000
3811 12194 1 0.16500 119244.000000
3811 13816 1 0.16500 119244.000000
3812 14260 1 0.16500 119244.000000
3812 16228 1 0.16500 119244.000000
3813 12195 1 0.16500 119244.000000
3813 12976 1 0.16500 119244.000000
3814 12195 1 0.16500 119244.000000
3814 16086 1 0.16500 119244.000000
3815 12195 1 0.16500 119244.000000
3815 14260 1 0.16500 119244.000000
3816 12196 1 0.16500 119244.000000
3816 14171 1 0.16500 119244.000000
3817 12196 1 0.16500 119244.000000
3817 13525 1 0.16500 119244.000000
3818 12196 1 0.16500 119244.000000
3818 13083 1 0.16500 119244.000000
3819 12197 1 0.16500 119244.000000
3819 13722 1 0.16500 119244.000000
3820 12197 1 0.16500 119244.000000
3820 14357 1 0.16500 119244.000000
3821 12197 1 0.16500 119244.000000
3821 13692 1 0.16500 119244.000000
3822 12197 1 0.16500 119244.000000
3822 14733 1 0.16500 119244.000000
3823 12198 1 0.16500 119244.000000
3823 14829 1 0.16500 119244.000000
3824 12198 1 0.16500 119244.000000
3824 14247 1 0.16500 119244.000000
3825 12198 1 0.16500 119244.000000
3825 14438 1 0.16500 119244.000000
3826 12199 1 0.16500 119244.000000
3826 15577 1 0.16500 119244.000000
3827 12199 1 0.16500 119244.000000
3827 13725 1 0.16500 119244.000000
3828 12199 1 0.16500 119244.000000
3828 12741 1 0.16500 119244.000000
3829 12200 1 0.16500 119244.000000
3829 16005 1 0.16500 119244.000000
3830 12200 1 0.16500 119244.000000
3830 14814 1 0.16500 119244.000000
3831 12200 1 0.16500 119244.000000
3831 14449 1 0.16500 119244.000000
3832 12201 1 0.16500 119244.000000
3832 23668 1 0.16500 119244.000000
3833 13897 1 0.16500 119244.000000
3833 16147 1 0.16500 119244.000000
3834 12201 1 0.16500 119244.000000
3834 22717 1 0.16500 119244.000000
3835 12202 1 0.16500 119244.000000
3835 15320 1 0.16500 119244.000000
3836 12202 1 0.16500 119244.000000
3836 13735 1 0.16500 119244.000000
3837 12202 1 0.16500 119244.000000
3837 16102 1 0.16500 119244.000000
3838 12203 1 0.16500 119244.000000
3838 13961 1 0.16500 119244.000000
3839 12203 1 0.16500 119244.000000
3839 13414 1 0.16500 119244.000000
3840 12203 1 0.16500 119244.000000
3840 13703 1 0.16500 119244.000000
3841 12203 1 0.16500 119244.000000
3841 15897 1 0.16500 119244.000000
3842 12204 1 0.16500 119244.000000
3842 12733 1 0.16500 119244.000000
3843 12204 1 0.16500 119244.000000
3843 14532 1 0.16500 119244.000000
3844 12204 1 0.16500 119244.000000
3844 15601 1 0.16500 119244.000000
3845 12205 1 0.16500 119244.000000
3845 20377 1 0.16500 119244.000000
3846 12205 1 0.16500 119244.000000
3846 15049 1 0.16500 119244.000000
3847 12205 1 0.16500 119244.000000
3847 12708 1 0.16500 119244.000000
3848 12205 1 0.16500 119244.000000
3848 15880 1 0.16500 119244.000000
3849 12206 1 0.16500 119244.000000
3849 13404 1 0.16500 119244.000000
3850 12206 1 0.16500 119244.000000
3850 12517 1 0.16500 119244.000000
3851 12206 1 0.16500 119244.000000
3851 12802 1 0.16500 119244.000000
3852 12207 1 0.16500 119244.000000
3852 13165 1 0.16500 119244.000000
3853 12207 1 0.16500 119244.000000
3853 14692 1 0.16500 119244.000000
3854 12207 1 0.16500 119244.000000
3854 15936 1 0.16500 119244.000000
3855 12208 1 0.16500 119244.000000
3855 15623 1 0.16500 119244.000000
3856 12208 1 0.16500 119244.000000
3856 14215 1 0.16500 119244.000000
3857 12208 1 0.16500 119244.000000
3857 15739 1 0.16500 119244.000000
3858 12208 1 0.16500 119244.000000
3858 13444 1 0.16500 119244.000000
3859 12209 1 0.16500 119244.000000
3859 13124 1 0.16500 119244.000000
3860 12209 1 0.16500 119244.000000
3860 15978 1 0.16500 119244.000000
3861 12209 1 0.16500 119244.000000
3861 15811 1 0.16500 119244.000000
3862 12209 1 0.16500 119244.000000
3862 13707 1 0.16500 119244.000000
3863 12210 1 0.16500 119244.000000
3863 13869 1 0.16500 119244.000000
3864 12210 1 0.16500 119244.000000
3864 15269 1 0.16500 119244.000000
3865 12210 1 0.16500 119244.000000
3865 16143 1 0.16500 119244.000000
3866 12210 1 0.16500 119244.000000
3866 15289 1 0.16500 119244.000000
3867 12211 1 0.16500 119244.000000
3867 13143 1 0.16500 119244.000000
3868 12211 1 0.16500 119244.000000
3868 15126 1 0.16500 119244.000000
3869 12212 1 0.16500 119244.000000
3869 15363 1 0.16500 119244.000000
3870 12213 1 0.16500 119244.000000
3870 15805 1 0.16500 119244.000000
3871 12213 1 0.16500 119244.000000
3871 13128 1 0.16500 119244.000000
3872 12213 1 0.16500 119244.000000
3872 12841 1 0.16500 119244.000000
3873 12214 1 0.16500 119244.000000
3873 13114 1 0.16500 119244.000000
3874 12214 1 0.16500 119244.000000
3874 14348 1 0.16500 119244.000000
3875 12214 1 0.16500 119244.000000
3875 14837 1 0.16500 119244.000000
3876 12214 1 0.16500 119244.000000
3876 12688 1 0.16500 119244.000000
3877 12783 1 0.16500 119244.000000
3877 23761 1 0.16500 119244.000000
3878 23761 1 0.16500 119244.000000
3878 24166 1 0.16500 119244.000000
3879 23209 1 0.16500 119244.000000
3879 23593 1 0.16500 119244.000000
3880 23593 1 0.16500 119244.000000
3880 23995 1 0.16500 119244.000000
3881 15130 1 0.16500 119244.000000
3881 23593 1 0.16500 119244.000000
3882 12215 1 0.16500 119244.000000
3882 14585 1 0.16500 119244.000000
3883 12215 1 0.16500 119244.000000
3883 13778 1 0.16500 119244.000000
3884 12215 1 0.16500 119244.000000
3884 13110 1 0.16500 119244.000000
3885 12215 1 0.16500 119244.000000
3885 24031 1 0.16500 119244.000000
3886 12216 1 0.16500 119244.000000
3886 14539 1 0.16500 119244.000000
3887 12216 1 0.16500 119244.000000
3887 15276 1 0.16500 119244.000000
3888 12216 1 0.16500 119244.000000
3888 15665 1 0.16500 119244.000000
3889 12217 1 0.16500 119244.000000
3889 15556 1 0.16500 119244.000000
3890 12217 1 0.16500 119244.000000
3890 13142 1 0.16500 119244.000000
3891 12217 1 0.16500 119244.000000
3891 14062 1 0.16500 119244.000000
3892 12218 1 0.16500 119244.000000
3892 13238 1 0.16500 119244.000000
3893 12218 1 0.16500 119244.000000
3893 12331 1 0.16500 119244.000000
3894 12218 1 0.16500 119244.000000
3894 15224 1 0.16500 119244.000000
3895 12219 1 0.16500 119244.000000
3895 15449 1 0.16500 119244.000000
3896 12219 1 0.16500 119244.000000
3896 14322 1 0.16500 119244.000000
3897 12219 1 0.16500 119244.000000
3897 14339 1 0.16500 119244.000000
3898 12219 1 0.16500 119244.000000
3898 15151 1 0.16500 119244.000000
3899 12220 1 0.16500 119244.000000
3899 23269 1 0.16500 119244.000000
3900 12220 1 0.16500 119244.000000
3900 13082 1 0.16500 119244.000000
3901 12220 1 0.16500 119244.000000
3901 16209 1 0.16500 119244.000000
3902 12221 1 0.16500 119244.000000
3902 14063 1 0.16500 119244.000000
3903 12221 1 0.16500 119244.000000
3903 13604 1 0.16500 119244.000000
3904 12221 1 0.16500 119244.000000
3904 23794 1 0.16500 119244.000000
3905 12221 1 0.16500 119244.000000
3905 12247 1 0.16500 119244.000000
3906 12222 1 0.16500 119244.000000
3906 14587 1 0.16500 119244.000000
3907 12222 1 0.16500 119244.000000
3907 13240 1 0.16500 119244.000000
3908 12222 1 0.16500 119244.000000
3908 14918 1 0.16500 119244.000000
3909 12222 1 0.16500 119244.000000
3909 12494 1 0.16500 119244.000000
3910 12223 1 0.16500 119244.000000
3910 15041 1 0.16500 119244.000000
3911 12223 1 0.16500 119244.000000
3911 14136 1 0.16500 119244.000000
3912 12223 1 0.16500 119244.000000
3912 12491 1 0.16500 119244.000000
3913 12224 1 0.16500 119244.000000
3913 14417 1 0.16500 119244.000000
3914 12224 1 0.16500 119244.000000
3914 20113 1 0.16500 119244.000000
3915 12225 1 0.16500 119244.000000
3915 14233 1 0.16500 119244.000000
3916 12225 1 0.16500 119244.000000
3916 15082 1 0.16500 119244.000000
3917 12225 1 0.16500 119244.000000
3917 12724 1 0.16500 119244.000000
3918 12225 1 0.16500 119244.000000
3918 16257 1 0.16500 119244.000000
3919 13687 1 0.16500 119244.000000
3919 14192 1 0.16500 119244.000000
3920 12226 1 0.16500 119244.000000
3920 13687 1 0.16500 119244.000000
3921 12226 1 0.16500 119244.000000
3921 16194 1 0.16500 119244.000000
3922 22345 1 0.16500 119244.000000
3922 22621 1 0.16500 119244.000000
3923 12227 1 0.16500 119244.000000
3923 22345 1 0.16500 119244.000000
3924 12228 1 0.16500 119244.000000
3924 15107 1 0.16500 119244.000000
3925 12228 1 0.16500 119244.000000
3925 14946 1 0.16500 119244.000000
3926 12228 1 0.16500 119244.000000
3926 13855 1 0.16500 119244.000000
3927 12229 1 0.16500 119244.000000
3927 24118 1 0.16500 119244.000000
3928 12229 1 0.16500 119244.000000
3928 14375 1 0.16500 119244.000000
3929 12230 1 0.16500 119244.000000
3929 13086 1 0.16500 119244.000000
3930 12230 1 0.16500 119244.000000
3930 22393 1 0.16500 119244.000000
3931 12231 1 0.16500 119244.000000
3931 14295 1 0.16500 119244.000000
3932 12231 1 0.16500 119244.000000
3932 15259 1 0.16500 119244.000000
3933 12231 1 0.16500 119244.000000
3933 14345 1 0.16500 119244.000000
3934 12231 1 0.16500 119244.000000
3934 13675 1 0.16500 119244.000000
3935 13077 1 0.16500 119244.000000
3935 22897 1 0.16500 119244.000000
3936 13077 1 0.16500 119244.000000
3936 16465 1 0.16500 119244.000000
3937 12232 1 0.16500 119244.000000
3937 13132 1 0.16500 119244.000000
3938 12232 1 0.16500 119244.000000
3938 13542 1 0.16500 119244.000000
3939 12233 1 0.16500 119244.000000
3939 14675 1 0.16500 119244.000000
3940 12233 1 0.16500 119244.000000
3940 12838 1 0.16500 119244.000000
3941 12233 1 0.16500 119244.000000
3941 13782 1 0.16500 119244.000000
3942 12233 1 0.16500 119244.000000
3942 15347 1 0.16500 119244.000000
3943 12234 1 0.16500 119244.000000
3943 13521 1 0.16500 119244.000000
3944 12234 1 0.16500 119244.000000
3944 12970 1 0.16500 119244.000000
3945 12234 1 0.16500 119244.000000
3945 14990 1 0.16500 119244.000000
3946 12235 1 0.16500 119244.000000
3946 24157 1 0.16500 119244.000000
3947 12236 1 0.16500 119244.000000
3947 13650 1 0.16500 119244.000000
3948 12236 1 0.16500 119244.000000
3948 13262 1 0.16500 119244.000000
3949 12236 1 0.16500 119244.000000
3949 14543 1 0.16500 119244.000000
3950 12237 1 0.16500 119244.000000
3950 12591 1 0.16500 119244.000000
3951 12237 1 0.16500 119244.000000
3951 14450 1 0.16500 119244.000000
3952 12237 1 0.16500 119244.000000
3952 12920 1 0.16500 119244.000000
3953 12237 1 0.16500 119244.000000
3953 13497 1 0.16500 119244.000000
3954 12238 1 0.16500 119244.000000
3954 13341 1 0.16500 119244.000000
3955 12238 1 0.16500 119244.000000
3955 13792 1 0.16500 119244.000000
3956 13341 1 0.16500 119244.000000
3956 18075 1 0.16500 119244.000000
3957 12238 1 0.16500 119244.000000
3957 13104 1 0.16500 119244.000000
3958 12239 1 0.16500 119244.000000
3958 14279 1 0.16500 119244.000000
3959 12239 1 0.16500 119244.000000
3959 14438 1 0.16500 119244.000000
3960 12240 1 0.16500 119244.000000
3960 14122 1 0.16500 119244.000000
3961 12240 1 0.16500 119244.000000
3961 12398 1 0.16500 119244.000000
3962 12241 1 0.16500 119244.000000
3962 13530 1 0.16500 119244.000000
3963 12241 1 0.16500 119244.000000
3963 14499 1 0.16500 119244.000000
3964 12241 1 0.16500 119244.000000
3964 12935 1 0.16500 119244.000000
3965 12241 1 0.16500 119244.000000
3965 14808 1 0.16500 119244.000000
3966 12242 1 0.16500 119244.000000
3966 13999 1 0.16500 119244.000000
3967 12242 1 0.16500 119244.000000
3967 15048 1 0.16500 119244.000000
3968 12242 1 0.16500 119244.000000
3968 14087 1 0.16500 119244.000000
3969 12242 1 0.16500 119244.000000
3969 13494 1 0.16500 119244.000000
3970 12243 1 0.16500 119244.000000
3970 15142 1 0.16500 119244.000000
3971 12243 1 0.16500 119244.000000
3971 12256 1 0.16500 119244.000000
3972 11622 1 0.16500 119244.000000
3972 13325 1 0.16500 119244.000000
3973 12244 1 0.16500 119244.000000
3973 12890 1 0.16500 119244.000000
3974 12244 1 0.16500 119244.000000
3974 20533 1 0.16500 119244.000000
3975 12244 1 0.16500 119244.000000
3975 14668 1 0.16500 119244.000000
3976 12244 1 0.16500 119244.000000
3976 23389 1 0.16500 119244.000000
3977 12245 1 0.16500 119244.000000
3977 14322 1 0.16500 119244.000000
3978 12245 1 0.16500 119244.000000
3978 15235 1 0.16500 119244.000000
3979 12246 1 0.16500 119244.000000
3979 13750 1 0.16500 119244.000000
3980 12246 1 0.16500 119244.000000
3980 13020 1 0.16500 119244.000000
3981 12246 1 0.16500 119244.000000
3981 14378 1 0.16500 119244.000000
3982 12247 1 0.16500 119244.000000
3982 16137 1 0.16500 119244.000000
3983 12247 1 0.16500 119244.000000
3983 21661 1 0.16500 119244.000000
3984 12247 1 0.16500 119244.000000
3984 13531 1 0.16500 119244.000000
3985 12248 1 0.16500 119244.000000
3985 14216 1 0.16500 119244.000000
3986 12248 1 0.16500 119244.000000
3986 16265 1 0.16500 119244.000000
3987 12248 1 0.16500 119244.000000
3987 15628 1 0.16500 119244.000000
3988 12248 1 0.16500 119244.000000
3988 14520 1 0.16500 119244.000000
3989 12249 1 0.16500 119244.000000
3989 15227 1 0.16500 119244.000000
3990 12249 1 0.16500 119244.000000
3990 13078 1 0.16500 119244.000000
3991 12249 1 0.16500 119244.000000
3991 13994 1 0.16500 119244.000000
3992 12249 1 0.16500 119244.000000
3992 14342 1 0.16500 119244.000000
3993 12250 1 0.16500 119244.000000
3993 22225 1 0.16500 119244.000000
3994 12250 1 0.16500 119244.000000
3994 12961 1 0.16500 119244.000000
3995 12250 1 0.16500 119244.000000
3995 14831 1 0.16500 119244.000000
3996 12250 1 0.16500 119244.000000
3996 12888 1 0.16500 119244.000000
3997 12251 1 0.16500 119244.000000
3997 16163 1 0.16500 119244.000000
3998 12251 1 0.16500 119244.000000
3998 14011 1 0.16500 119244.000000
3999 12251 1 0.16500 119244.000000
3999 13904 1 0.16500 119244.000000
4000 12252 1 0.16500 119244.000000
4000 14337 1 0.16500 119244.000000
4001 12252 1 0.16500 119244.000000
4001 14343 1 0.16500 119244.000000
4002 12252 1 0.16500 119244.000000
4002 15268 1 0.16500 119244.000000
4003 12253 1 0.16500 119244.000000
4003 15546 1 0.16500 119244.000000
4004 12253 1 0.16500 119244.000000
4004 15892 1 0.16500 119244.000000
4005 12254 1 0.16500 119244.000000
4005 13431 1 0.16500 119244.000000
4006 12254 1 0.16500 119244.000000
4006 15531 1 0.16500 119244.000000
4007 12254 1 0.16500 119244.000000
4007 14280 1 0.16500 119244.000000
4008 12254 1 0.16500 119244.000000
4008 14307 1 0.16500 119244.000000
4009 12255 1 0.16500 119244.000000
4009 15228 1 0.16500 119244.000000
4010 11971 1 0.16500 119244.000000
4010 12255 1 0.16500 119244.000000
4011 12255 1 0.16500 119244.000000
4011 13828 1 0.16500 119244.000000
4012 12256 1 0.16500 119244.000000
4012 13452 1 0.16500 119244.000000
4013 12256 1 0.16500 119244.000000
4013 12758 1 0.16500 119244.000000
4014 18075 1 0.16500 119244.000000
4014 20065 1 0.16500 119244.000000
4015 12998 1 0.16500 119244.000000
4015 20065 1 0.16500 119244.000000
4016 13250 1 0.16500 119244.000000
4016 20065 1 0.16500 119244.000000
4017 12257 1 0.16500 119244.000000
4017 14530 1 0.16500 119244.000000
4018 12257 1 0.16500 119244.000000
4018 20017 1 0.16500 119244.000000
4019 12258 1 0.16500 119244.000000
4019 14418 1 0.16500 119244.000000
4020 12258 1 0.16500 119244.000000
4020 14682 1 0.16500 119244.000000
4021 12258 1 0.16500 119244.000000
4021 16019 1 0.16500 119244.000000
4022 12592 1 0.16500 119244.000000
4022 15808 1 0.16500 119244.000000
4023 12259 1 0.16500 119244.000000
4023 20761 1 0.16500 119244.000000
4024 12259 1 0.16500 119244.000000
4024 12644 1 0.16500 119244.000000
4025 12259 1 0.16500 119244.000000
4025 15808 1 0.16500 119244.000000
4026 12260 1 0.16500 119244.000000
4026 12993 1 0.16500 119244.000000
4027 12993 1 0.16500 119244.000000
4027 16020 1 0.16500 119244.000000
4028 13085 1 0.16500 119244.000000
4028 23497 1 0.16500 119244.000000
4029 15944 1 0.16500 119244.000000
4029 23497 1 0.16500 119244.000000
4030 11457 1 0.16500 119244.000000
4030 14610 1 0.16500 119244.000000
4031 12261 1 0.16500 119244.000000
4031 15562 1 0.16500 119244.000000
4032 12261 1 0.16500 119244.000000
4032 22837 1 0.16500 119244.000000
4033 22117 1 0.16500 119244.000000
4033 22477 1 0.16500 119244.000000
4034 13695 1 0.16500 119244.000000
4034 22477 1 0.16500 119244.000000
4035 12262 1 0.16500 119244.000000
4035 14239 1 0.16500 119244.000000
4036 13184 1 0.16500 119244.000000
4036 15279 1 0.16500 119244.000000
4037 12262 1 0.16500 119244.000000
4037 16225 1 0.16500 119244.000000
4038 12262 1 0.16500 119244.000000
4038 15279 1 0.16500 119244.000000
4039 12263 1 0.16500 119244.000000
4039 14954 1 0.16500 119244.000000
4040 12263 1 0.16500 119244.000000
4040 13969 1 0.16500 119244.000000
4041 19201 1 0.16500 119244.000000
4041 21361 1 0.16500 119244.000000
4042 15304 1 0.16500 119244.000000
4042 21361 1 0.16500 119244.000000
4043 12264 1 0.16500 119244.000000
4043 15148 1 0.16500 119244.000000
4044 12264 1 0.16500 119244.000000
4044 12283 1 0.16500 119244.000000
4045 12264 1 0.16500 119244.000000
4045 15911 1 0.16500 119244.000000
4046 12265 1 0.16500 119244.000000
4046 12438 1 0.16500 119244.000000
4047 12265 1 0.16500 119244.000000
4047 12944 1 0.16500 119244.000000
4048 12265 1 0.16500 119244.000000
4048 13506 1 0.16500 119244.000000
4049 12266 1 0.16500 119244.000000
4049 14800 1 0.16500 119244.000000
4050 12266 1 0.16500 119244.000000
4050 17711 1 0.16500 119244.000000
4051 12266 1 0.16500 119244.000000
4051 17781 1 0.16500 119244.000000
4052 12266 1 0.16500 119244.000000
4052 14476 1 0.16500 119244.000000
4053 12267 1 0.16500 119244.000000
4053 14676 1 0.16500 119244.000000
4054 12267 1 0.16500 119244.000000
4054 13278 1 0.16500 119244.000000
4055 12267 1 0.16500 119244.000000
4055 14504 1 0.16500 119244.000000
4056 12268 1 0.16500 119244.000000
4056 13621 1 0.16500 119244.000000
4057 12268 1 0.16500 119244.000000
4057 19849 1 0.16500 119244.000000
4058 12268 1 0.16500 119244.000000
4058 15232 1 0.16500 119244.000000
4059 12269 1 0.16500 119244.000000
4059 13455 1 0.16500 119244.000000
4060 12269 1 0.16500 119244.000000
4060 21277 1 0.16500 119244.000000
4061 12269 1 0.16500 119244.000000
4061 12574 1 0.16500 119244.000000
4062 12270 1 0.16500 119244.000000
4062 15252 1 0.16500 119244.000000
4063 12270 1 0.16500 119244.000000
4063 15368 1 0.16500 119244.000000
4064 12270 1 0.16500 119244.000000
4064 13617 1 0.16500 119244.000000
4065 12270 1 0.16500 119244.000000
4065 12311 1 0.16500 119244.000000
4066 12271 1 0.16500 119244.000000
4066 15460 1 0.16500 119244.000000
4067 11826 1 0.16500 119244.000000
4067 15460 1 0.16500 119244.000000
4068 12271 1 0.16500 119244.000000
4068 14405 1 0.16500 119244.000000
4069 12272 1 0.16500 119244.000000
4069 13943 1 0.16500 119244.000000
4070 12273 1 0.16500 119244.000000
4070 15009 1 0.16500 119244.000000
4071 12273 1 0.16500 119244.000000
4071 15092 1 0.16500 119244.000000
4072 12273 1 0.16500 119244.000000
4072 12477 1 0.16500 119244.000000
4073 12273 1 0.16500 119244.000000
4073 14514 1 0.16500 119244.000000
4074 12274 1 0.16500 119244.000000
4074 15890 1 0.16500 119244.000000
4075 12274 1 0.16500 119244.000000
4075 18805 1 0.16500 119244.000000
4076 12274 1 0.16500 119244.000000
4076 24037 1 0.16500 119244.000000
4077 12275 1 0.16500 119244.000000
4077 14960 1 0.16500 119244.000000
4078 12275 1 0.16500 119244.000000
4078 15325 1 0.16500 119244.000000
4079 12275 1 0.16500 119244.000000
4079 12713 1 0.16500 119244.000000
4080 12275 1 0.16500 119244.000000
4080 15653 1 0.16500 119244.000000
4081 11653 1 0.16500 119244.000000
4081 14456 1 0.16500 119244.000000
4082 12276 1 0.16500 119244.000000
4082 20017 1 0.16500 119244.000000
4083 12276 1 0.16500 119244.000000
4083 12457 1 0.16500 119244.000000
4084 12277 1 0.16500 119244.000000
4084 13581 1 0.16500 119244.000000
4085 12277 1 0.16500 119244.000000
4085 18793 1 0.16500 119244.000000
4086 12278 1 0.16500 119244.000000
4086 14957 1 0.16500 119244.000000
4087 12278 1 0.16500 119244.000000
4087 17557 1 0.16500 119244.000000
4088 12278 1 0.16500 119244.000000
4088 14397 1 0.16500 119244.000000
4089 12279 1 0.16500 119244.000000
4089 12363 1 0.16500 119244.000000
4090 12279 1 0.16500 119244.000000
4090 13622 1 0.16500 119244.000000
4091 12279 1 0.16500 119244.000000
4091 13368 1 0.16500 119244.000000
4092 12280 1 0.16500 119244.000000
4092 13685 1 0.16500 119244.000000
4093 12280 1 0.16500 119244.000000
4093 13201 1 0.16500 119244.000000
4094 12280 1 0.16500 119244.000000
4094 12878 1 0.16500 119244.000000
4095 12280 1 0.16500 119244.000000
4095 14721 1 0.16500 119244.000000
4096 12281 1 0.16500 119244.000000
4096 13224 1 0.16500 119244.000000
4097 12281 1 0.16500 119244.000000
4097 14970 1 0.16500 119244.000000
4098 12281 1 0.16500 119244.000000
4098 13319 1 0.16500 119244.000000
4099 12281 1 0.16500 119244.000000
4099 15084 1 0.16500 119244.000000
4100 12282 1 0.16500 119244.000000
4100 13169 1 0.16500 119244.000000
4101 13169 1 0.16500 119244.000000
4101 15799 1 0.16500 119244.000000
4102 23764 1 0.16500 119244.000000
4102 24010 1 0.16500 119244.000000
4103 13012 1 0.16500 119244.000000
4103 23764 1 0.16500 119244.000000
4104 12283 1 0.16500 119244.000000
4104 13115 1 0.16500 119244.000000
4105 12283 1 0.16500 119244.000000
4105 16111 1 0.16500 119244.000000
4106 12283 1 0.16500 119244.000000
4106 15884 1 0.16500 119244.000000
4107 12794 1 0.16500 119244.000000
4107 16120 1 0.16500 119244.000000
4108 12794 1 0.16500 119244.000000
4108 20293 1 0.16500 119244.000000
4109 16221 1 0.16500 119244.000000
4109 20293 1 0.16500 119244.000000
4110 15121 1 0.16500 119244.000000
4110 20293 1 0.16500 119244.000000
4111 12901 1 0.16500 119244.000000
4111 23848 1 0.16500 119244.000000
4112 12284 1 0.16500 119244.000000
4112 12466 1 0.16500 119244.000000
4113 12284 1 0.16500 119244.000000
4113 13882 1 0.16500 119244.000000
4114 12285 1 0.16500 119244.000000
4114 14336 1 0.16500 119244.000000
4115 12285 1 0.16500 119244.000000
4115 14563 1 0.16500 119244.000000
4116 12285 1 0.16500 119244.000000
4116 16081 1 0.16500 119244.000000
4117 12285 1 0.16500 119244.000000
4117 15819 1 0.16500 119244.000000
4118 12286 1 0.16500 119244.000000
4118 19705 1 0.16500 119244.000000
4119 12286 1 0.16500 119244.000000
4119 16151 1 0.16500 119244.000000
4120 12287 1 0.16500 119244.000000
4120 16132 1 0.16500 119244.000000
4121 12287 1 0.16500 119244.000000
4121 14465 1 0.16500 119244.000000
4122 12287 1 0.16500 119244.000000
4122 15150 1 0.16500 119244.000000
4123 12287 1 0.16500 119244.000000
4123 14015 1 0.16500 119244.000000
4124 12288 1 0.16500 119244.000000
4124 15243 1 0.16500 119244.000000
4125 12288 1 0.16500 119244.000000
4125 16018 1 0.16500 119244.000000
4126 12288 1 0.16500 119244.000000
4126 13610 1 0.16500 119244.000000
4127 12288 1 0.16500 119244.000000
4127 15661 1 0.16500 119244.000000
4128 12289 1 0.16500 119244.000000
4128 13094 1 0.16500 119244.000000
4129 12289 1 0.16500 119244.000000
4129 15381 1 0.16500 119244.000000
4130 12290 1 0.16500 119244.000000
4130 15230 1 0.16500 119244.000000
4131 12290 1 0.16500 119244.000000
4131 12940 1 0.16500 119244.000000
4132 12291 1 0.16500 119244.000000
4132 14533 1 0.16500 119244.000000
4133 12291 1 0.16500 119244.000000
4133 12472 1 0.16500 119244.000000
4134 12291 1 0.16500 119244.000000
4134 14468 1 0.16500 119244.000000
4135 12292 1 0.16500 119244.000000
4135 13581 1 0.16500 119244.000000
4136 12292 1 0.16500 119244.000000
4136 13609 1 0.16500 119244.000000
4137 12292 1 0.16500 119244.000000
4137 12344 1 0.16500 119244.000000
4138 12293 1 0.16500 119244.000000
4138 14235 1 0.16500 119244.000000
4139 12293 1 0.16500 119244.000000
4139 15616 1 0.16500 119244.000000
4140 12293 1 0.16500 119244.000000
4140 14440 1 0.16500 119244.000000
4141 12294 1 0.16500 119244.000000
4141 14792 1 0.16500 119244.000000
4142 12294 1 0.16500 119244.000000
4142 15133 1 0.16500 119244.000000
4143 12294 1 0.16500 119244.000000
4143 12359 1 0.16500 119244.000000
4144 12294 1 0.16500 119244.000000
4144 12465 1 0.16500 119244.000000
4145 12295 1 0.16500 119244.000000
4145 16020 1 0.16500 119244.000000
4146 12295 1 0.16500 119244.000000
4146 13271 1 0.16500 119244.000000
4147 12295 1 0.16500 119244.000000
4147 15073 1 0.16500 119244.000000
4148 12295 1 0.16500 119244.000000
4148 14618 1 0.16500 119244.000000
4149 12296 1 0.16500 119244.000000
4149 15286 1 0.16500 119244.000000
4150 12296 1 0.16500 119244.000000
4150 17725 1 0.16500 119244.000000
4151 12297 1 0.16500 119244.000000
4151 14747 1 0.16500 119244.000000
4152 12297 1 0.16500 119244.000000
4152 13111 1 0.16500 119244.000000
4153 12297 1 0.16500 119244.000000
4153 13413 1 0.16500 119244.000000
4154 12298 1 0.16500 119244.000000
4154 13929 1 0.16500 119244.000000
4155 12298 1 0.16500 119244.000000
4155 15538 1 0.16500 119244.000000
4156 12298 1 0.16500 119244.000000
4156 13269 1 0.16500 119244.000000
4157 12298 1 0.16500 119244.000000
4157 13941 1 0.16500 119244.000000
4158 12299 1 0.16500 119244.000000
4158 15490 1 0.16500 119244.000000
4159 12299 1 0.16500 119244.000000
4159 15459 1 0.16500 119244.000000
4160 12300 1 0.16500 119244.000000
4160 15931 1 0.16500 119244.000000
4161 12300 1 0.16500 119244.000000
4161 14955 1 0.16500 119244.000000
4162 12300 1 0.16500 119244.000000
4162 14797 1 0.16500 119244.000000
4163 12301 1 0.16500 119244.000000
4163 14613 1 0.16500 119244.000000
4164 12301 1 0.16500 119244.000000
4164 13930 1 0.16500 119244.000000
4165 12301 1 0.16500 119244.000000
4165 15759 1 0.16500 119244.000000
4166 12301 1 0.16500 119244.000000
4166 13478 1 0.16500 119244.000000
4167 11358 1 0.16500 119244.000000
4167 18901 1 0.16500 119244.000000
4168 11358 1 0.16500 119244.000000
4168 16661 1 0.16500 119244.000000
4169 12302 1 0.16500 119244.000000
4169 14293 1 0.16500 119244.000000
4170 12302 1 0.16500 119244.000000
4170 15124 1 0.16500 119244.000000
4171 12302 1 0.16500 119244.000000
4171 13577 1 0.16500 119244.000000
4172 21061 1 0.16500 119244.000000
4172 24437 1 0.16500 119244.000000
4173 12303 1 0.16500 119244.000000
4173 14242 1 0.16500 119244.000000
4174 12303 1 0.16500 119244.000000
4174 14666 1 0.16500 119244.000000
4175 12303 1 0.16500 119244.000000
4175 12308 1 0.16500 119244.000000
4176 12304 1 0.16500 119244.000000
4176 15778 1 0.16500 119244.000000
4177 12304 1 0.16500 119244.000000
4177 14469 1 0.16500 119244.000000
4178 12304 1 0.16500 119244.000000
4178 13383 1 0.16500 119244.000000
4179 12305 1 0.16500 119244.000000
4179 12430 1 0.16500 119244.000000
4180 12305 1 0.16500 119244.000000
4180 15231 1 0.16500 119244.000000
4181 12305 1 0.16500 119244.000000
4181 13344 1 0.16500 119244.000000
4182 12306 1 0.16500 119244.000000
4182 12551 1 0.16500 119244.000000
4183 12306 1 0.16500 119244.000000
4183 15273 1 0.16500 119244.000000
4184 12307 1 0.16500 119244.000000
4184 23839 1 0.16500 119244.000000
4185 12307 1 0.16500 119244.000000
4185 24127 1 0.16500 119244.000000
4186 12308 1 0.16500 119244.000000
4186 14881 1 0.16500 119244.000000
4187 12308 1 0.16500 119244.000000
4187 14732 1 0.16500 119244.000000
4188 12308 1 0.16500 119244.000000
4188 15163 1 0.16500 119244.000000
4189 12309 1 0.16500 119244.000000
4189 13112 1 0.16500 119244.000000
4190 12309 1 0.16500 119244.000000
4190 15706 1 0.16500 119244.000000
4191 12310 1 0.16500 119244.000000
4191 12544 1 0.16500 119244.000000
4192 12310 1 0.16500 119244.000000
4192 13982 1 0.16500 119244.000000
4193 12310 1 0.16500 119244.000000
4193 12583 1 0.16500 119244.000000
4194 12311 1 0.16500 119244.000000
4194 12514 1 0.16500 119244.000000
4195 12311 1 0.16500 119244.000000
4195 16032 1 0.16500 119244.000000
4196 12311 1 0.16500 119244.000000
4196 13465 1 0.16500 119244.000000
4197 12312 1 0.16500 119244.000000
4197 13485 1 0.16500 119244.000000
4198 12312 1 0.16500 119244.000000
4198 15419 1 0.16500 119244.000000
4199 12312 1 0.16500 119244.000000
4199 13411 1 0.16500 119244.000000
4200 12312 1 0.16500 119244.000000
4200 15520 1 0.16500 119244.000000
4201 12313 1 0.16500 119244.000000
4201 14039 1 0.16500 119244.000000
4202 12313 1 0.16500 119244.000000
4202 15338 1 0.16500 119244.000000
4203 12313 1 0.16500 119244.000000
4203 14880 1 0.16500 119244.000000
4204 12313 1 0.16500 119244.000000
4204 15935 1 0.16500 119244.000000
4205 12314 1 0.16500 119244.000000
4205 16089 1 0.16500 119244.000000
4206 12314 1 0.16500 119244.000000
4206 13060 1 0.16500 119244.000000
4207 12314 1 0.16500 119244.000000
4207 16577 1 0.16500 119244.000000
4208 15937 1 0.16500 119244.000000
4208 17697 1 0.16500 119244.000000
4209 17697 1 0.16500 119244.000000
4209 24220 1 0.16500 119244.000000
4210 12315 1 0.16500 119244.000000
4210 12627 1 0.16500 119244.000000
4211 12315 1 0.16500 119244.000000
4211 12916 1 0.16500 119244.000000
4212 12315 1 0.16500 119244.000000
4212 13829 1 0.16500 119244.000000
4213 12316 1 0.16500 119244.000000
4213 13540 1 0.16500 119244.000000
4214 12316 1 0.16500 119244.000000
4214 14080 1 0.16500 119244.000000
4215 12316 1 0.16500 119244.000000
4215 15931 1 0.16500 119244.000000
4216 12316 1 0.16500 119244.000000
4216 21157 1 0.16500 119244.000000
4217 12317 1 0.16500 119244.000000
4217 15707 1 0.16500 119244.000000
4218 12317 1 0.16500 119244.000000
4218 16211 1 0.16500 119244.000000
4219 12317 1 0.16500 119244.000000
4219 14107 1 0.16500 119244.000000
4220 12317 1 0.16500 119244.000000
4220 13706 1 0.16500 119244.000000
4221 12318 1 0.16500 119244.000000
4221 19909 1 0.16500 119244.000000
4222 12318 1 0.16500 119244.000000
4222 12561 1 0.16500 119244.000000
4223 12318 1 0.16500 119244.000000
4223 12952 1 0.16500 119244.000000
4224 12318 1 0.16500 119244.000000
4224 23845 1 0.16500 119244.000000
4225 12319 1 0.16500 119244.000000
4225 13415 1 0.16500 119244.000000
4226 12319 1 0.16500 119244.000000
4226 13816 1 0.16500 119244.000000
4227 12319 1 0.16500 119244.000000
4227 13289 1 0.16500 119244.000000
4228 12319 1 0.16500 119244.000000
4228 13134 1 0.16500 119244.000000
4229 12320 1 0.16500 119244.000000
4229 13369 1 0.16500 119244.000000
4230 12320 1 0.16500 119244.000000
4230 14605 1 0.16500 119244.000000
4231 12320 1 0.16500 119244.000000
4231 13449 1 0.16500 119244.000000
4232 12321 1 0.16500 119244.000000
4232 12535 1 0.16500 119244.000000
4233 12321 1 0.16500 119244.000000
4233 14292 1 0.16500 119244.000000
4234 12321 1 0.16500 119244.000000
4234 14803 1 0.16500 119244.000000
4235 12321 1 0.16500 119244.000000
4235 15317 1 0.16500 119244.000000
4236 13639 1 0.16500 119244.000000
4236 16647 1 0.16500 119244.000000
4237 12322 1 0.16500 119244.000000
4237 13048 1 0.16500 119244.000000
4238 12322 1 0.16500 119244.000000
4238 24265 1 0.16500 119244.000000
4239 12322 1 0.16500 119244.000000
4239 13060 1 0.16500 119244.000000
4240 12322 1 0.16500 119244.000000
4240 15574 1 0.16500 119244.000000
4241 12323 1 0.16500 119244.000000
4241 14695 1 0.16500 119244.000000
4242 12323 1 0.16500 119244.000000
4242 13767 1 0.16500 119244.000000
4243 12323 1 0.16500 119244.000000
4243 15644 1 0.16500 119244.000000
4244 12324 1 0.16500 119244.000000
4244 12527 1 0.16500 119244.000000
4245 12324 1 0.16500 119244.000000
4245 12369 1 0.16500 119244.000000
4246 12324 1 0.16500 119244.000000
4246 15179 1 0.16500 119244.000000
4247 12324 1 0.16500 119244.000000
4247 14555 1 0.16500 119244.000000
4248 12325 1 0.16500 119244.000000
4248 15085 1 0.16500 119244.000000
4249 12325 1 0.16500 119244.000000
4249 13905 1 0.16500 119244.000000
4250 12325 1 0.16500 119244.000000
4250 13635 1 0.16500 119244.000000
4251 12325 1 0.16500 119244.000000
4251 16032 1 0.16500 119244.000000
4252 12326 1 0.16500 119244.000000
4252 14988 1 0.16500 119244.000000
4253 12326 1 0.16500 119244.000000
4253 12878 1 0.16500 119244.000000
4254 12326 1 0.16500 119244.000000
4254 13184 1 0.16500 119244.000000
4255 12327 1 0.16500 119244.000000
4255 14837 1 0.16500 119244.000000
4256 12327 1 0.16500 119244.000000
4256 14010 1 0.16500 119244.000000
4257 12327 1 0.16500 119244.000000
4257 15984 1 0.16500 119244.000000
4258 12327 1 0.16500 119244.000000
4258 15708 1 0.16500 119244.000000
4259 12328 1 0.16500 119244.000000
4259 13353 1 0.16500 119244.000000
4260 12328 1 0.16500 119244.000000
4260 13497 1 0.16500 119244.000000
4261 12328 1 0.16500 119244.000000
4261 14462 1 0.16500 119244.000000
4262 12329 1 0.16500 119244.000000
4262 12453 1 0.16500 119244.000000
4263 12329 1 0.16500 119244.000000
4263 14679 1 0.16500 119244.000000
4264 12329 1 0.16500 119244.000000
4264 16236 1 0.16500 119244.000000
4265 12329 1 0.16500 119244.000000
4265 15627 1 0.16500 119244.000000
4266 12330 1 0.16500 119244.000000
4266 14049 1 0.16500 119244.000000
4267 12330 1 0.16500 119244.000000
4267 13066 1 0.16500 119244.000000
4268 12330 1 0.16500 119244.000000
4268 15037 1 0.16500 119244.000000
4269 12330 1 0.16500 119244.000000
4269 14730 1 0.16500 119244.000000
4270 12331 1 0.16500 119244.000000
4270 18033 1 0.16500 119244.000000
4271 12331 1 0.16500 119244.000000
4271 13596 1 0.16500 119244.000000
4272 12332 1 0.16500 119244.000000
4272 12337 1 0.16500 119244.000000
4273 12332 1 0.16500 119244.000000
4273 15152 1 0.16500 119244.000000
4274 12332 1 0.16500 119244.000000
4274 14940 1 0.16500 119244.000000
4275 12332 1 0.16500 119244.000000
4275 15013 1 0.16500 119244.000000
4276 12333 1 0.16500 119244.000000
4276 14677 1 0.16500 119244.000000
4277 12333 1 0.16500 119244.000000
4277 16153 1 0.16500 119244.000000
4278 12334 1 0.16500 119244.000000
4278 20881 1 0.16500 119244.000000
4279 12334 1 0.16500 119244.000000
4279 15558 1 0.16500 119244.000000
4280 12334 1 0.16500 119244.000000
4280 13559 1 0.16500 119244.000000
4281 12334 1 0.16500 119244.000000
4281 17865 1 0.16500 119244.000000
4282 12335 1 0.16500 119244.000000
4282 15157 1 0.16500 119244.000000
4283 12335 1 0.16500 119244.000000
4283 16121 1 0.16500 119244.000000
4284 12336 1 0.16500 119244.000000
4284 14670 1 0.16500 119244.000000
4285 12385 1 0.16500 119244.000000
4285 14670 1 0.16500 119244.000000
4286 12336 1 0.16500 119244.000000
4286 12890 1 0.16500 119244.000000
4287 12337 1 0.16500 119244.000000
4287 14648 1 0.16500 119244.000000
4288 12337 1 0.16500 119244.000000
4288 12470 1 0.16500 119244.000000
4289 12337 1 0.16500 119244.000000
4289 14288 1 0.16500 119244.000000
4290 12338 1 0.16500 119244.000000
4290 16268 1 0.16500 119244.000000
4291 12338 1 0.16500 119244.000000
4291 12787 1 0.16500 119244.000000
4292 12338 1 0.16500 119244.000000
4292 18877 1 0.16500 119244.000000
4293 12338 1 0.16500 119244.000000
4293 12896 1 0.16500 119244.000000
4294 12339 1 0.16500 119244.000000
4294 13722 1 0.16500 119244.000000
4295 11401 1 0.16500 119244.000000
4295 13583 1 0.16500 119244.000000
4296 12339 1 0.16500 119244.000000
4296 14272 1 0.16500 119244.000000
4297 13126 1 0.16500 119244.000000
4297 18805 1 0.16500 119244.000000
4298 15758 1 0.16500 119244.000000
4298 18805 1 0.16500 119244.000000
4299 12340 1 0.16500 119244.000000
4299 14146 1 0.16500 119244.000000
4300 12340 1 0.16500 119244.000000
4300 16142 1 0.16500 119244.000000
4301 12340 1 0.16500 119244.000000
4301 14673 1 0.16500 119244.000000
4302 12341 1 0.16500 119244.000000
4302 12411 1 0.16500 119244.000000
4303 12411 1 0.16500 119244.000000
4303 14622 1 0.16500 119244.000000
4304 12341 1 0.16500 119244.000000
4304 17459 1 0.16500 119244.000000
4305 12342 1 0.16500 119244.000000
4305 14888 1 0.16500 119244.000000
4306 12342 1 0.16500 119244.000000
4306 13309 1 0.16500 119244.000000
4307 12342 1 0.16500 119244.000000
4307 13358 1 0.16500 119244.000000
4308 12342 1 0.16500 119244.000000
4308 15399 1 0.16500 119244.000000
4309 12343 1 0.16500 119244.000000
4309 12375 1 0.16500 119244.000000
4310 12343 1 0.16500 119244.000000
4310 14271 1 0.16500 119244.000000
4311 12343 1 0.16500 119244.000000
4311 15270 1 0.16500 119244.000000
4312 12344 1 0.16500 119244.000000
4312 12825 1 0.16500 119244.000000
4313 12344 1 0.16500 119244.000000
4313 15890 1 0.16500 119244.000000
4314 12345 1 0.16500 119244.000000
4314 15037 1 0.16500 119244.000000
4315 12345 1 0.16500 119244.000000
4315 13771 1 0.16500 119244.000000
4316 12345 1 0.16500 119244.000000
4316 15807 1 0.16500 119244.000000
4317 12346 1 0.16500 119244.000000
4317 15810 1 0.16500 119244.000000
4318 12346 1 0.16500 119244.000000
4318 17305 1 0.16500 119244.000000
4319 12346 1 0.16500 119244.000000
4319 13489 1 0.16500 119244.000000
4320 13489 1 0.16500 119244.000000
4320 16099 1 0.16500 119244.000000
4321 12347 1 0.16500 119244.000000
4321 13330 1 0.16500 119244.000000
4322 12347 1 0.16500 119244.000000
4322 12478 1 0.16500 119244.000000
4323 12347 1 0.16500 119244.000000
4323 14489 1 0.16500 119244.000000
4324 12347 1 0.16500 119244.000000
4324 13510 1 0.16500 119244.000000
4325 16283 1 0.16500 119244.000000
4325 20113 1 0.16500 119244.000000
4326 16115 1 0.16500 119244.000000
4326 16283 1 0.16500 119244.000000
4327 12348 1 0.16500 119244.000000
4327 12634 1 0.16500 119244.000000
4328 12348 1 0.16500 119244.000000
4328 14723 1 0.16500 119244.000000
4329 12348 1 0.16500 119244.000000
4329 14481 1 0.16500 119244.000000
4330 12348 1 0.16500 119244.000000
4330 23161 1 0.16500 119244.000000
4331 12349 1 0.16500 119244.000000
4331 14711 1 0.16500 119244.000000
4332 12149 1 0.16500 119244.000000
4332 12349 1 0.16500 119244.000000
4333 12349 1 0.16500 119244.000000
4333 15496 1 0.16500 119244.000000
4334 12349 1 0.16500 119244.000000
4334 14849 1 0.16500 119244.000000
4335 12350 1 0.16500 119244.000000
4335 14167 1 0.16500 119244.000000
4336 12350 1 0.16500 119244.000000
4336 13374 1 0.16500 119244.000000
4337 12350 1 0.16500 119244.000000
4337 15905 1 0.16500 119244.000000
4338 23029 1 0.16500 119244.000000
4338 23842 1 0.16500 119244.000000
4339 15703 1 0.16500 119244.000000
4339 23029 1 0.16500 119244.000000
4340 20377 1 0.16500 119244.000000
4340 23029 1 0.16500 119244.000000
4341 12351 1 0.16500 119244.000000
4341 14936 1 0.16500 119244.000000
4342 12351 1 0.16500 119244.000000
4342 16194 1 0.16500 119244.000000
4343 12351 1 0.16500 119244.000000
4343 14553 1 0.16500 119244.000000
4344 12351 1 0.16500 119244.000000
4344 14311 1 0.16500 119244.000000
4345 12352 1 0.16500 119244.000000
4345 14630 1 0.16500 119244.000000
4346 12352 1 0.16500 119244.000000
4346 13755 1 0.16500 119244.000000
4347 12352 1 0.16500 119244.000000
4347 13985 1 0.16500 119244.000000
4348 12352 1 0.16500 119244.000000
4348 15127 1 0.16500 119244.000000
4349 12353 1 0.16500 119244.000000
4349 12877 1 0.16500 119244.000000
4350 12353 1 0.16500 119244.000000
4350 14206 1 0.16500 119244.000000
4351 12353 1 0.16500 119244.000000
4351 15140 1 0.16500 119244.000000
4352 12353 1 0.16500 119244.000000
4352 14822 1 0.16500 119244.000000
4353 12354 1 0.16500 119244.000000
4353 13268 1 0.16500 119244.000000
4354 12354 1 0.16500 119244.000000
4354 12711 1 0.16500 119244.000000
4355 12354 1 0.16500 119244.000000
4355 14512 1 0.16500 119244.000000
4356 12354 1 0.16500 119244.000000
4356 14059 1 0.16500 119244.000000
4357 12355 1 0.16500 119244.000000
4357 15744 1 0.16500 119244.000000
4358 12355 1 0.16500 119244.000000
4358 15103 1 0.16500 119244.000000
4359 12355 1 0.16500 119244.000000
4359 13150 1 0.16500 119244.000000
4360 12355 1 0.16500 119244.000000
4360 15714 1 0.16500 119244.000000
4361 12356 1 0.16500 119244.000000
4361 15616 1 0.16500 119244.000000
4362 12356 1 0.16500 119244.000000
4362 13476 1 0.16500 119244.000000
4363 12356 1 0.16500 119244.000000
4363 24115 1 0.16500 119244.000000
4364 12356 1 0.16500 119244.000000
4364 12420 1 0.16500 119244.000000
4365 12357 1 0.16500 119244.000000
4365 16011 1 0.16500 119244.000000
4366 12357 1 0.16500 119244.000000
4366 13217 1 0.16500 119244.000000
4367 12357 1 0.16500 119244.000000
4367 15249 1 0.16500 119244.000000
4368 12357 1 0.16500 119244.000000
4368 12793 1 0.16500 119244.000000
4369 12358 1 0.16500 119244.000000
4369 14932 1 0.16500 119244.000000
4370 12358 1 0.16500 119244.000000
4370 15006 1 0.16500 119244.000000
4371 12358 1 0.16500 119244.000000
4371 12403 1 0.16500 119244.000000
4372 12359 1 0.16500 119244.000000
4372 15407 1 0.16500 119244.000000
4373 12359 1 0.16500 119244.000000
4373 15867 1 0.16500 119244.000000
4374 13066 1 0.16500 119244.000000
4374 23767 1 0.16500 119244.000000
4375 12360 1 0.16500 119244.000000
4375 14113 1 0.16500 119244.000000
4376 12360 1 0.16500 119244.000000
4376 13485 1 0.16500 119244.000000
4377 12361 1 0.16500 119244.000000
4377 14624 1 0.16500 119244.000000
4378 12361 1 0.16500 119244.000000
4378 23149 1 0.16500 119244.000000
4379 12361 1 0.16500 119244.000000
4379 15461 1 0.16500 119244.000000
4380 12362 1 0.16500 119244.000000
4380 15704 1 0.16500 119244.000000
4381 12362 1 0.16500 119244.000000
4381 12531 1 0.16500 119244.000000
4382 12363 1 0.16500 119244.000000
4382 13392 1 0.16500 119244.000000
4383 12363 1 0.16500 119244.000000
4383 13356 1 0.16500 119244.000000
4384 12363 1 0.16500 119244.000000
4384 16231 1 0.16500 119244.000000
4385 12364 1 0.16500 119244.000000
4385 15920 1 0.16500 119244.000000
4386 12364 1 0.16500 119244.000000
4386 15738 1 0.16500 119244.000000
4387 12364 1 0.16500 119244.000000
4387 14718 1 0.16500 119244.000000
4388 12364 1 0.16500 119244.000000
4388 14995 1 0.16500 119244.000000
4389 12365 1 0.16500 119244.000000
4389 15559 1 0.16500 119244.000000
4390 12365 1 0.16500 119244.000000
4390 14418 1 0.16500 119244.000000
4391 12366 1 0.16500 119244.000000
4391 19825 1 0.16500 119244.000000
4392 12493 1 0.16500 119244.000000
4392 19825 1 0.16500 119244.000000
4393 12366 1 0.16500 119244.000000
4393 13056 1 0.16500 119244.000000
4394 12367 1 0.16500 119244.000000
4394 15256 1 0.16500 119244.000000
4395 12367 1 0.16500 119244.000000
4395 13843 1 0.16500 119244.000000
4396 12367 1 0.16500 119244.000000
4396 14519 1 0.16500 119244.000000
4397 12367 1 0.16500 119244.000000
4397 13939 1 0.16500 119244.000000
4398 15712 1 0.16500 119244.000000
4398 20401 1 0.16500 119244.000000
4399 13872 1 0.16500 119244.000000
4399 20401 1 0.16500 119244.000000
4400 14420 1 0.16500 119244.000000
4400 20401 1 0.16500 119244.000000
4401 12368 1 0.16500 119244.000000
4401 14660 1 0.16500 119244.000000
4402 12368 1 0.16500 119244.000000
4402 13804 1 0.16500 119244.000000
4403 12368 1 0.16500 119244.000000
4403 15512 1 0.16500 119244.000000
4404 12369 1 0.16500 119244.000000
4404 15966 1 0.16500 119244.000000
4405 12369 1 0.16500 119244.000000
4405 14581 1 0.16500 119244.000000
4406 12369 1 0.16500 119244.000000
4406 13690 1 0.16500 119244.000000
4407 12370 1 0.16500 119244.000000
4407 13408 1 0.16500 119244.000000
4408 12370 1 0.16500 119244.000000
4408 14394 1 0.16500 119244.000000
4409 12370 1 0.16500 119244.000000
4409 14682 1 0.16500 119244.000000
4410 12371 1 0.16500 119244.000000
4410 15717 1 0.16500 119244.000000
4411 12371 1 0.16500 119244.000000
4411 12994 1 0.16500 119244.000000
4412 12371 1 0.16500 119244.000000
4412 13194 1 0.16500 119244.000000
4413 12372 1 0.16500 119244.000000
4413 16164 1 0.16500 119244.000000
4414 12372 1 0.16500 119244.000000
4414 16096 1 0.16500 119244.000000
4415 12372 1 0.16500 119244.000000
4415 14565 1 0.16500 119244.000000
4416 12372 1 0.16500 119244.000000
4416 15731 1 0.16500 119244.000000
4417 12373 1 0.16500 119244.000000
4417 13352 1 0.16500 119244.000000
4418 12373 1 0.16500 119244.000000
4418 19921 1 0.16500 119244.000000
4419 12084 1 0.16500 119244.000000
4419 20545 1 0.16500 119244.000000
4420 12374 1 0.16500 119244.000000
4420 12431 1 0.16500 119244.000000
4421 12374 1 0.16500 119244.000000
4421 14183 1 0.16500 119244.000000
4422 12374 1 0.16500 119244.000000
4422 12444 1 0.16500 119244.000000
4423 12375 1 0.16500 119244.000000
4423 15846 1 0.16500 119244.000000
4424 12375 1 0.16500 119244.000000
4424 14936 1 0.16500 119244.000000
4425 12376 1 0.16500 119244.000000
4425 19645 1 0.16500 119244.000000
4426 12376 1 0.16500 119244.000000
4426 14877 1 0.16500 119244.000000
4427 12376 1 0.16500 119244.000000
4427 22981 1 0.16500 119244.000000
4428 12377 1 0.16500 119244.000000
4428 14103 1 0.16500 119244.000000
4429 12377 1 0.16500 119244.000000
4429 12770 1 0.16500 119244.000000
4430 12377 1 0.16500 119244.000000
4430 12980 1 0.16500 119244.000000
4431 12377 1 0.16500 119244.000000
4431 16277 1 0.16500 119244.000000
4432 20533 1 0.16500 119244.000000
4432 23770 1 0.16500 119244.000000
4433 23770 1 0.16500 119244.000000
4433 23905 1 0.16500 119244.000000
4434 14143 1 0.16500 119244.000000
4434 23770 1 0.16500 119244.000000
4435 12974 1 0.16500 119244.000000
4435 20365 1 0.16500 119244.000000
4436 12378 1 0.16500 119244.000000
4436 13878 1 0.16500 119244.000000
4437 12378 1 0.16500 119244.000000
4437 21985 1 0.16500 119244.000000
4438 12378 1 0.16500 119244.000000
4438 15092 1 0.16500 119244.000000
4439 12378 1 0.16500 119244.000000
4439 18613 1 0.16500 119244.000000
4440 12379 1 0.16500 119244.000000
4440 14276 1 0.16500 119244.000000
4441 12379 1 0.16500 119244.000000
4441 12926 1 0.16500 119244.000000
4442 12380 1 0.16500 119244.000000
4442 13824 1 0.16500 119244.000000
4443 12380 1 0.16500 119244.000000
4443 12888 1 0.16500 119244.000000
4444 11340 1 0.16500 119244.000000
4444 12380 1 0.16500 119244.000000
4445 12380 1 0.16500 119244.000000
4445 16142 1 0.16500 119244.000000
4446 12381 1 0.16500 119244.000000
4446 22909 1 0.16500 119244.000000
4447 12381 1 0.16500 119244.000000
4447 14992 1 0.16500 119244.000000
4448 12381 1 0.16500 119244.000000
4448 16266 1 0.16500 119244.000000
4449 12381 1 0.16500 119244.000000
4449 12777 1 0.16500 119244.000000
4450 12382 1 0.16500 119244.000000
4450 15421 1 0.16500 119244.000000
4451 12382 1 0.16500 119244.000000
4451 15022 1 0.16500 119244.000000
4452 12382 1 0.16500 119244.000000
4452 16072 1 0.16500 119244.000000
4453 12383 1 0.16500 119244.000000
4453 13834 1 0.16500 119244.000000
4454 12383 1 0.16500 119244.000000
4454 21841 1 0.16500 119244.000000
4455 12383 1 0.16500 119244.000000
4455 13266 1 0.16500 119244.000000
4456 12384 1 0.16500 119244.000000
4456 14875 1 0.16500 119244.000000
4457 12384 1 0.16500 119244.000000
4457 12821 1 0.16500 119244.000000
4458 12384 1 0.16500 119244.000000
4458 12513 1 0.16500 119244.000000
4459 12385 1 0.16500 119244.000000
4459 12685 1 0.16500 119244.000000
4460 12385 1 0.16500 119244.000000
4460 13357 1 0.16500 119244.000000
4461 12386 1 0.16500 119244.000000
4461 13939 1 0.16500 119244.000000
4462 12386 1 0.16500 119244.000000
4462 12412 1 0.16500 119244.000000
4463 11459 1 0.16500 119244.000000
4463 12386 1 0.16500 119244.000000
4464 12387 1 0.16500 119244.000000
4464 12841 1 0.16500 119244.000000
4465 12387 1 0.16500 119244.000000
4465 15805 1 0.16500 119244.000000
4466 12388 1 0.16500 119244.000000
4466 12861 1 0.16500 119244.000000
4467 12388 1 0.16500 119244.000000
4467 14142 1 0.16500 119244.000000
4468 12388 1 0.16500 119244.000000
4468 13030 1 0.16500 119244.000000
4469 12389 1 0.16500 119244.000000
4469 15801 1 0.16500 119244.000000
4470 12389 1 0.16500 119244.000000
4470 14063 1 0.16500 119244.000000
4471 12389 1 0.16500 119244.000000
4471 15089 1 0.16500 119244.000000
4472 12389 1 0.16500 119244.000000
4472 14249 1 0.16500 119244.000000
4473 12390 1 0.16500 119244.000000
4473 14282 1 0.16500 119244.000000
4474 12390 1 0.16500 119244.000000
4474 14585 1 0.16500 119244.000000
4475 12390 1 0.16500 119244.000000
4475 14196 1 0.16500 119244.000000
4476 15130 1 0.16500 119244.000000
4476 21469 1 0.16500 119244.000000
4477 16239 1 0.16500 119244.000000
4477 21469 1 0.16500 119244.000000
4478 15800 1 0.16500 119244.000000
4478 21469 1 0.16500 119244.000000
4479 17963 1 0.16500 119244.000000
4479 24157 1 0.16500 119244.000000
4480 14133 1 0.16500 119244.000000
4480 15842 1 0.16500 119244.000000
4481 15842 1 0.16500 119244.000000
4481 17963 1 0.16500 119244.000000
4482 12391 1 0.16500 119244.000000
4482 13394 1 0.16500 119244.000000
4483 12391 1 0.16500 119244.000000
4483 13537 1 0.16500 119244.000000
4484 12391 1 0.16500 119244.000000
4484 14088 1 0.16500 119244.000000
4485 12391 1 0.16500 119244.000000
4485 16053 1 0.16500 119244.000000
4486 12392 1 0.16500 119244.000000
4486 15179 1 0.16500 119244.000000
4487 12392 1 0.16500 119244.000000
4487 14867 1 0.16500 119244.000000
4488 12392 1 0.16500 119244.000000
4488 13398 1 0.16500 119244.000000
4489 12392 1 0.16500 119244.000000
4489 16191 1 0.16500 119244.000000
4490 12393 1 0.16500 119244.000000
4490 13883 1 0.16500 119244.000000
4491 12393 1 0.16500 119244.000000
4491 15832 1 0.16500 119244.000000
4492 12393 1 0.16500 119244.000000
4492 12825 1 0.16500 119244.000000
4493 12393 1 0.16500 119244.000000
4493 14335 1 0.16500 119244.000000
4494 12394 1 0.16500 119244.000000
4494 18469 1 0.16500 119244.000000
4495 14338 1 0.16500 119244.000000
4495 15653 1 0.16500 119244.000000
4496 12394 1 0.16500 119244.000000
4496 14338 1 0.16500 119244.000000
4497 12394 1 0.16500 119244.000000
4497 24211 1 0.16500 119244.000000
4498 12395 1 0.16500 119244.000000
4498 13208 1 0.16500 119244.000000
4499 12395 1 0.16500 119244.000000
4499 12905 1 0.16500 119244.000000
4500 12395 1 0.16500 119244.000000
4500 15251 1 0.16500 119244.000000
4501 12396 1 0.16500 119244.000000
4501 21505 1 0.16500 119244.000000
4502 12396 1 0.16500 119244.000000
4502 16181 1 0.16500 119244.000000
4503 12396 1 0.16500 119244.000000
4503 16122 1 0.16500 119244.000000
4504 12397 1 0.16500 119244.000000
4504 15669 1 0.16500 119244.000000
4505 12397 1 0.16500 119244.000000
4505 15809 1 0.16500 119244.000000
4506 12397 1 0.16500 119244.000000
4506 14714 1 0.16500 119244.000000
4507 12398 1 0.16500 119244.000000
4507 15879 1 0.16500 119244.000000
4508 12398 1 0.16500 119244.000000
4508 16094 1 0.16500 119244.000000
4509 14445 1 0.16500 119244.000000
4509 24347 1 0.16500 119244.000000
4510 22573 1 0.16500 119244.000000
4510 24347 1 0.16500 119244.000000
4511 12978 1 0.16500 119244.000000
4511 23773 1 0.16500 119244.000000
4512 13773 1 0.16500 119244.000000
4512 23773 1 0.16500 119244.000000
4513 19165 1 0.16500 119244.000000
4513 23773 1 0.16500 119244.000000
4514 13248 1 0.16500 119244.000000
4514 18433 1 0.16500 119244.000000
4515 21769 1 0.16500 119244.000000
4515 23776 1 0.16500 119244.000000
4516 23776 1 0.16500 119244.000000
4516 23965 1 0.16500 119244.000000
4517 23776 1 0.16500 119244.000000
4517 24256 1 0.16500 119244.000000
4518 12399 1 0.16500 119244.000000
4518 15362 1 0.16500 119244.000000
4519 12399 1 0.16500 119244.000000
4519 20533 1 0.16500 119244.000000
4520 12399 1 0.16500 119244.000000
4520 16145 1 0.16500 119244.000000
4521 12399 1 0.16500 119244.000000
4521 12611 1 0.16500 119244.000000
4522 12400 1 0.16500 119244.000000
4522 14694 1 0.16500 119244.000000
4523 12400 1 0.16500 119244.000000
4523 14943 1 0.16500 119244.000000
4524 12401 1 0.16500 119244.000000
4524 15139 1 0.16500 119244.000000
4525 12401 1 0.16500 119244.000000
4525 13983 1 0.16500 119244.000000
4526 12402 1 0.16500 119244.000000
4526 13144 1 0.16500 119244.000000
4527 12402 1 0.16500 119244.000000
4527 15438 1 0.16500 119244.000000
4528 11512 1 0.16500 119244.000000
4528 12402 1 0.16500 119244.000000
4529 12402 1 0.16500 119244.000000
4529 15545 1 0.16500 119244.000000
4530 22081 1 0.16500 119244.000000
4530 24280 1 0.16500 119244.000000
4531 12403 1 0.16500 119244.000000
4531 16045 1 0.16500 119244.000000
4532 12403 1 0.16500 119244.000000
4532 16113 1 0.16500 119244.000000
4533 11811 1 0.16500 119244.000000
4533 12403 1 0.16500 119244.000000
4534 15062 1 0.16500 119244.000000
4534 20173 1 0.16500 119244.000000
4535 14070 1 0.16500 119244.000000
4535 20173 1 0.16500 119244.000000
4536 12404 1 0.16500 119244.000000
4536 14883 1 0.16500 119244.000000
4537 12404 1 0.16500 119244.000000
4537 14765 1 0.16500 119244.000000
4538 12404 1 0.16500 119244.000000
4538 15835 1 0.16500 119244.000000
4539 14579 1 0.16500 119244.000000
4539 24352 1 0.16500 119244.000000
4540 12405 1 0.16500 119244.000000
4540 14347 1 0.16500 119244.000000
4541 12405 1 0.16500 119244.000000
4541 15544 1 0.16500 119244.000000
4542 12405 1 0.16500 119244.000000
4542 14813 1 0.16500 119244.000000
4543 12406 1 0.16500 119244.000000
4543 13725 1 0.16500 119244.000000
4544 12406 1 0.16500 119244.000000
4544 13782 1 0.16500 119244.000000
4545 12406 1 0.16500 119244.000000
4545 12556 1 0.16500 119244.000000
4546 12407 1 0.16500 119244.000000
4546 14030 1 0.16500 119244.000000
4547 12407 1 0.16500 119244.000000
4547 13033 1 0.16500 119244.000000
4548 12407 1 0.16500 119244.000000
4548 13980 1 0.16500 119244.000000
4549 12407 1 0.16500 119244.000000
4549 16058 1 0.16500 119244.000000
4550 12408 1 0.16500 119244.000000
4550 15359 1 0.16500 119244.000000
4551 12408 1 0.16500 119244.000000
4551 14194 1 0.16500 119244.000000
4552 12408 1 0.16500 119244.000000
4552 14958 1 0.16500 119244.000000
4553 19573 1 0.16500 119244.000000
4553 24034 1 0.16500 119244.000000
4554 12409 1 0.16500 119244.000000
4554 18961 1 0.16500 119244.000000
4555 12409 1 0.16500 119244.000000
4555 16071 1 0.16500 119244.000000
4556 12409 1 0.16500 119244.000000
4556 24034 1 0.16500 119244.000000
4557 12410 1 0.16500 119244.000000
4557 12461 1 0.16500 119244.000000
4558 12410 1 0.16500 119244.000000
4558 15836 1 0.16500 119244.000000
4559 12410 1 0.16500 119244.000000
4559 13646 1 0.16500 119244.000000
4560 12341 1 0.16500 119244.000000
4560 16156 1 0.16500 119244.000000
4561 12411 1 0.16500 119244.000000
4561 16171 1 0.16500 119244.000000
4562 12411 1 0.16500 119244.000000
4562 14523 1 0.16500 119244.000000
4563 12412 1 0.16500 119244.000000
4563 13933 1 0.16500 119244.000000
4564 12412 1 0.16500 119244.000000
4564 13067 1 0.16500 119244.000000
4565 12413 1 0.16500 119244.000000
4565 15346 1 0.16500 119244.000000
4566 12413 1 0.16500 119244.000000
4566 15170 1 0.16500 119244.000000
4567 12414 1 0.16500 119244.000000
4567 15231 1 0.16500 119244.000000
4568 12415 1 0.16500 119244.000000
4568 14016 1 0.16500 119244.000000
4569 12415 1 0.16500 119244.000000
4569 13102 1 0.16500 119244.000000
4570 12415 1 0.16500 119244.000000
4570 16223 1 0.16500 119244.000000
4571 12415 1 0.16500 119244.000000
4571 12548 1 0.16500 119244.000000
4572 12416 1 0.16500 119244.000000
4572 14736 1 0.16500 119244.000000
4573 12416 1 0.16500 119244.000000
4573 15424 1 0.16500 119244.000000
4574 12416 1 0.16500 119244.000000
4574 14814 1 0.16500 119244.000000
4575 12417 1 0.16500 119244.000000
4575 14938 1 0.16500 119244.000000
4576 12417 1 0.16500 119244.000000
4576 18433 1 0.16500 119244.000000
4577 12417 1 0.16500 119244.000000
4577 20545 1 0.16500 119244.000000
4578 12417 1 0.16500 119244.000000
4578 12919 1 0.16500 119244.000000
4579 12418 1 0.16500 119244.000000
4579 13336 1 0.16500 119244.000000
4580 12418 1 0.16500 119244.000000
4580 15045 1 0.16500 119244.000000
4581 12418 1 0.16500 119244.000000
4581 14399 1 0.16500 119244.000000
4582 12418 1 0.16500 119244.000000
4582 15173 1 0.16500 119244.000000
4583 12419 1 0.16500 119244.000000
4583 13075 1 0.16500 119244.000000
4584 13075 1 0.16500 119244.000000
4584 15104 1 0.16500 119244.000000
4585 12420 1 0.16500 119244.000000
4585 15757 1 0.16500 119244.000000
4586 14434 1 0.16500 119244.000000
4586 18577 1 0.16500 119244.000000
4587 17123 1 0.16500 119244.000000
4587 18577 1 0.16500 119244.000000
4588 14174 1 0.16500 119244.000000
4588 18577 1 0.16500 119244.000000
4589 15079 1 0.16500 119244.000000
4589 23824 1 0.16500 119244.000000
4590 12851 1 0.16500 119244.000000
4590 15079 1 0.16500 119244.000000
4591 12421 1 0.16500 119244.000000
4591 15079 1 0.16500 119244.000000
4592 13495 1 0.16500 119244.000000
4592 15079 1 0.16500 119244.000000
4593 14421 1 0.16500 119244.000000
4593 14847 1 0.16500 119244.000000
4594 12422 1 0.16500 119244.000000
4594 14692 1 0.16500 119244.000000
4595 12422 1 0.16500 119244.000000
4595 14847 1 0.16500 119244.000000
4596 12423 1 0.16500 119244.000000
4596 12726 1 0.16500 119244.000000
4597 12423 1 0.16500 119244.000000
4597 15290 1 0.16500 119244.000000
4598 12423 1 0.16500 119244.000000
4598 15213 1 0.16500 119244.000000
4599 12424 1 0.16500 119244.000000
4599 13640 1 0.16500 119244.000000
4600 12424 1 0.16500 119244.000000
4600 12529 1 0.16500 119244.000000
4601 12424 1 0.16500 119244.000000
4601 14938 1 0.16500 119244.000000
4602 12424 1 0.16500 119244.000000
4602 14915 1 0.16500 119244.000000
4603 15907 1 0.16500 119244.000000
4603 20641 1 0.16500 119244.000000
4604 20341 1 0.16500 119244.000000
4604 20641 1 0.16500 119244.000000
4605 12425 1 0.16500 119244.000000
4605 15660 1 0.16500 119244.000000
4606 12425 1 0.16500 119244.000000
4606 12473 1 0.16500 119244.000000
4607 15956 1 0.16500 119244.000000
4607 19357 1 0.16500 119244.000000
4608 15211 1 0.16500 119244.000000
4608 19357 1 0.16500 119244.000000
4609 12426 1 0.16500 119244.000000
4609 13158 1 0.16500 119244.000000
4610 12426 1 0.16500 119244.000000
4610 15122 1 0.16500 119244.000000
4611 12426 1 0.16500 119244.000000
4611 15397 1 0.16500 119244.000000
4612 12426 1 0.16500 119244.000000
4612 15437 1 0.16500 119244.000000
4613 12427 1 0.16500 119244.000000
4613 15655 1 0.16500 119244.000000
4614 12427 1 0.16500 119244.000000
4614 13975 1 0.16500 119244.000000
4615 12427 1 0.16500 119244.000000
4615 14646 1 0.16500 119244.000000
4616 12427 1 0.16500 119244.000000
4616 15126 1 0.16500 119244.000000
4617 12428 1 0.16500 119244.000000
4617 23137 1 0.16500 119244.000000
4618 12428 1 0.16500 119244.000000
4618 14625 1 0.16500 119244.000000
4619 12428 1 0.16500 119244.000000
4619 15173 1 0.16500 119244.000000
4620 12429 1 0.16500 119244.000000
4620 15479 1 0.16500 119244.000000
4621 12429 1 0.16500 119244.000000
4621 13244 1 0.16500 119244.000000
4622 12429 1 0.16500 119244.000000
4622 14177 1 0.16500 119244.000000
4623 19789 1 0.16500 119244.000000
4623 19921 1 0.16500 119244.000000
4624 11368 1 0.16500 119244.000000
4624 19921 1 0.16500 119244.000000
4625 12305 1 0.16500 119244.000000
4625 14126 1 0.16500 119244.000000
4626 12430 1 0.16500 119244.000000
4626 14516 1 0.16500 119244.000000
4627 12430 1 0.16500 119244.000000
4627 12863 1 0.16500 119244.000000
4628 12431 1 0.16500 119244.000000
4628 14981 1 0.16500 119244.000000
4629 12431 1 0.16500 119244.000000
4629 13562 1 0.16500 119244.000000
4630 12432 1 0.16500 119244.000000
4630 13190 1 0.16500 119244.000000
4631 12432 1 0.16500 119244.000000
4631 14962 1 0.16500 119244.000000
4632 12432 1 0.16500 119244.000000
4632 12909 1 0.16500 119244.000000
4633 12432 1 0.16500 119244.000000
4633 14344 1 0.16500 119244.000000
4634 12433 1 0.16500 119244.000000
4634 13567 1 0.16500 119244.000000
4635 12433 1 0.16500 119244.000000
4635 15493 1 0.16500 119244.000000
4636 20713 1 0.16500 119244.000000
4636 23779 1 0.16500 119244.000000
4637 13261 1 0.16500 119244.000000
4637 23779 1 0.16500 119244.000000
4638 12771 1 0.16500 119244.000000
4638 23779 1 0.16500 119244.000000
4639 11374 1 0.16500 119244.000000
4639 16039 1 0.16500 119244.000000
4640 11374 1 0.16500 119244.000000
4640 13648 1 0.16500 119244.000000
4641 12435 1 0.16500 119244.000000
4641 15814 1 0.16500 119244.000000
4642 12435 1 0.16500 119244.000000
4642 15067 1 0.16500 119244.000000
4643 12435 1 0.16500 119244.000000
4643 14694 1 0.16500 119244.000000
4644 12435 1 0.16500 119244.000000
4644 13300 1 0.16500 119244.000000
4645 12436 1 0.16500 119244.000000
4645 23461 1 0.16500 119244.000000
4646 12436 1 0.16500 119244.000000
4646 15664 1 0.16500 119244.000000
4647 12436 1 0.16500 119244.000000
4647 16247 1 0.16500 119244.000000
4648 12437 1 0.16500 119244.000000
4648 21565 1 0.16500 119244.000000
4649 12437 1 0.16500 119244.000000
4649 12450 1 0.16500 119244.000000
4650 12437 1 0.16500 119244.000000
4650 21205 1 0.16500 119244.000000
4651 12438 1 0.16500 119244.000000
4651 15838 1 0.16500 119244.000000
4652 12438 1 0.16500 119244.000000
4652 16099 1 0.16500 119244.000000
4653 12438 1 0.16500 119244.000000
4653 12843 1 0.16500 119244.000000
4654 12439 1 0.16500 119244.000000
4654 12632 1 0.16500 119244.000000
4655 12439 1 0.16500 119244.000000
4655 13800 1 0.16500 119244.000000
4656 12439 1 0.16500 119244.000000
4656 13057 1 0.16500 119244.000000
4657 12439 1 0.16500 119244.000000
4657 15450 1 0.16500 119244.000000
4658 12440 1 0.16500 119244.000000
4658 13449 1 0.16500 119244.000000
4659 12440 1 0.16500 119244.000000
4659 14871 1 0.16500 119244.000000
4660 12441 1 0.16500 119244.000000
4660 16224 1 0.16500 119244.000000
4661 12441 1 0.16500 119244.000000
4661 16267 1 0.16500 119244.000000
4662 12441 1 0.16500 119244.000000
4662 15576 1 0.16500 119244.000000
4663 12441 1 0.16500 119244.000000
4663 12852 1 0.16500 119244.000000
4664 12442 1 0.16500 119244.000000
4664 13613 1 0.16500 119244.000000
4665 12442 1 0.16500 119244.000000
4665 15344 1 0.16500 119244.000000
4666 12442 1 0.16500 119244.000000
4666 15111 1 0.16500 119244.000000
4667 12443 1 0.16500 119244.000000
4667 16185 1 0.16500 119244.000000
4668 12443 1 0.16500 119244.000000
4668 15946 1 0.16500 119244.000000
4669 12443 1 0.16500 119244.000000
4669 15140 1 0.16500 119244.000000
4670 12443 1 0.16500 119244.000000
4670 12785 1 0.16500 119244.000000
4671 12444 1 0.16500 119244.000000
4671 14590 1 0.16500 119244.000000
4672 12444 1 0.16500 119244.000000
4672 14090 1 0.16500 119244.000000
4673 12444 1 0.16500 119244.000000
4673 15416 1 0.16500 119244.000000
4674 12445 1 0.16500 119244.000000
4674 22213 1 0.16500 119244.000000
4675 12445 1 0.16500 119244.000000
4675 13360 1 0.16500 119244.000000
4676 13686 1 0.16500 119244.000000
4676 15031 1 0.16500 119244.000000
4677 12445 1 0.16500 119244.000000
4677 15031 1 0.16500 119244.000000
4678 12446 1 0.16500 119244.000000
4678 12656 1 0.16500 119244.000000
4679 12446 1 0.16500 119244.000000
4679 13345 1 0.16500 119244.000000
4680 12446 1 0.16500 119244.000000
4680 15890 1 0.16500 119244.000000
4681 12446 1 0.16500 119244.000000
4681 15883 1 0.16500 119244.000000
4682 12447 1 0.16500 119244.000000
4682 15986 1 0.16500 119244.000000
4683 12447 1 0.16500 119244.000000
4683 16059 1 0.16500 119244.000000
4684 12448 1 0.16500 119244.000000
4684 13965 1 0.16500 119244.000000
4685 12448 1 0.16500 119244.000000
4685 12898 1 0.16500 119244.000000
4686 12448 1 0.16500 119244.000000
4686 14116 1 0.16500 119244.000000
4687 12448 1 0.16500 119244.000000
4687 12857 1 0.16500 119244.000000
4688 12449 1 0.16500 119244.000000
4688 21349 1 0.16500 119244.000000
4689 12449 1 0.16500 119244.000000
4689 24043 1 0.16500 119244.000000
4690 12449 1 0.16500 119244.000000
4690 12552 1 0.16500 119244.000000
4691 19225 1 0.16500 119244.000000
4691 23782 1 0.16500 119244.000000
4692 20521 1 0.16500 119244.000000
4692 23782 1 0.16500 119244.000000
4693 14712 1 0.16500 119244.000000
4693 23782 1 0.16500 119244.000000
4694 12450 1 0.16500 119244.000000
4694 15505 1 0.16500 119244.000000
4695 12450 1 0.16500 119244.000000
4695 15812 1 0.16500 119244.000000
4696 12451 1 0.16500 119244.000000
4696 13043 1 0.16500 119244.000000
4697 12451 1 0.16500 119244.000000
4697 15533 1 0.16500 119244.000000
4698 12452 1 0.16500 119244.000000
4698 14899 1 0.16500 119244.000000
4699 12452 1 0.16500 119244.000000
4699 15178 1 0.16500 119244.000000
4700 13726 1 0.16500 119244.000000
4700 21565 1 0.16500 119244.000000
4701 16927 1 0.16500 119244.000000
4701 21565 1 0.16500 119244.000000
4702 12453 1 0.16500 119244.000000
4702 15250 1 0.16500 119244.000000
4703 12453 1 0.16500 119244.000000
4703 13062 1 0.16500 119244.000000
4704 12453 1 0.16500 119244.000000
4704 13928 1 0.16500 119244.000000
4705 12454 1 0.16500 119244.000000
4705 13561 1 0.16500 119244.000000
4706 12454 1 0.16500 119244.000000
4706 14900 1 0.16500 119244.000000
4707 12454 1 0.16500 119244.000000
4707 20137 1 0.16500 119244.000000
4708 12455 1 0.16500 119244.000000
4708 13569 1 0.16500 119244.000000
4709 12455 1 0.16500 119244.000000
4709 18841 1 0.16500 119244.000000
4710 12455 1 0.16500 119244.000000
4710 14779 1 0.16500 119244.000000
4711 12456 1 0.16500 119244.000000
4711 14360 1 0.16500 119244.000000
4712 12456 1 0.16500 119244.000000
4712 13834 1 0.16500 119244.000000
4713 12456 1 0.16500 119244.000000
4713 12471 1 0.16500 119244.000000
4714 12456 1 0.16500 119244.000000
4714 14754 1 0.16500 119244.000000
4715 12457 1 0.16500 119244.000000
4715 12857 1 0.16500 119244.000000
4716 12457 1 0.16500 119244.000000
4716 14187 1 0.16500 119244.000000
4717 12458 1 0.16500 119244.000000
4717 12957 1 0.16500 119244.000000
4718 12458 1 0.16500 119244.000000
4718 15987 1 0.16500 119244.000000
4719 12458 1 0.16500 119244.000000
4719 15307 1 0.16500 119244.000000
4720 12458 1 0.16500 119244.000000
4720 13597 1 0.16500 119244.000000
4721 12459 1 0.16500 119244.000000
4721 13247 1 0.16500 119244.000000
4722 12459 1 0.16500 119244.000000
4722 12503 1 0.16500 119244.000000
4723 12459 1 0.16500 119244.000000
4723 12468 1 0.16500 119244.000000
4724 12459 1 0.16500 119244.000000
4724 13395 1 0.16500 119244.000000
4725 12460 1 0.16500 119244.000000
4725 15821 1 0.16500 119244.000000
4726 12460 1 0.16500 119244.000000
4726 16146 1 0.16500 119244.000000
4727 12460 1 0.16500 119244.000000
4727 15615 1 0.16500 119244.000000
4728 12460 1 0.16500 119244.000000
4728 14566 1 0.16500 119244.000000
4729 12461 1 0.16500 119244.000000
4729 13049 1 0.16500 119244.000000
4730 12461 1 0.16500 119244.000000
4730 12976 1 0.16500 119244.000000
4731 12461 1 0.16500 119244.000000
4731 13929 1 0.16500 119244.000000
4732 12462 1 0.16500 119244.000000
4732 14040 1 0.16500 119244.000000
4733 12462 1 0.16500 119244.000000
4733 19321 1 0.16500 119244.000000
4734 12462 1 0.16500 119244.000000
4734 12569 1 0.16500 119244.000000
4735 12462 1 0.16500 119244.000000
4735 20101 1 0.16500 119244.000000
4736 13849 1 0.16500 119244.000000
4736 23785 1 0.16500 119244.000000
4737 23785 1 0.16500 119244.000000
4737 23959 1 0.16500 119244.000000
4738 12463 1 0.16500 119244.000000
4738 24046 1 0.16500 119244.000000
4739 12463 1 0.16500 119244.000000
4739 15364 1 0.16500 119244.000000
4740 12463 1 0.16500 119244.000000
4740 15841 1 0.16500 119244.000000
4741 12463 1 0.16500 119244.000000
4741 13011 1 0.16500 119244.000000
4742 12464 1 0.16500 119244.000000
4742 13907 1 0.16500 119244.000000
4743 12464 1 0.16500 119244.000000
4743 13674 1 0.16500 119244.000000
4744 12464 1 0.16500 119244.000000
4744 12518 1 0.16500 119244.000000
4745 12465 1 0.16500 119244.000000
4745 15856 1 0.16500 119244.000000
4746 12465 1 0.16500 119244.000000
4746 12893 1 0.16500 119244.000000
4747 12466 1 0.16500 119244.000000
4747 14205 1 0.16500 119244.000000
4748 12466 1 0.16500 119244.000000
4748 15886 1 0.16500 119244.000000
4749 12466 1 0.16500 119244.000000
4749 15177 1 0.16500 119244.000000
4750 12467 1 0.16500 119244.000000
4750 12685 1 0.16500 119244.000000
4751 12467 1 0.16500 119244.000000
4751 13429 1 0.16500 119244.000000
4752 12468 1 0.16500 119244.000000
4752 13423 1 0.16500 119244.000000
4753 12468 1 0.16500 119244.000000
4753 14860 1 0.16500 119244.000000
4754 12468 1 0.16500 119244.000000
4754 15772 1 0.16500 119244.000000
4755 13711 1 0.16500 119244.000000
4755 15772 1 0.16500 119244.000000
4756 12469 1 0.16500 119244.000000
4756 12676 1 0.16500 119244.000000
4757 12469 1 0.16500 119244.000000
4757 15717 1 0.16500 119244.000000
4758 12469 1 0.16500 119244.000000
4758 14363 1 0.16500 119244.000000
4759 12470 1 0.16500 119244.000000
4759 15684 1 0.16500 119244.000000
4760 13643 1 0.16500 119244.000000
4760 14089 1 0.16500 119244.000000
4761 12470 1 0.16500 119244.000000
4761 14089 1 0.16500 119244.000000
4762 12471 1 0.16500 119244.000000
4762 13445 1 0.16500 119244.000000
4763 12471 1 0.16500 119244.000000
4763 15813 1 0.16500 119244.000000
4764 12471 1 0.16500 119244.000000
4764 12729 1 0.16500 119244.000000
4765 12472 1 0.16500 119244.000000
4765 14764 1 0.16500 119244.000000
4766 12473 1 0.16500 119244.000000
4766 14865 1 0.16500 119244.000000
4767 12473 1 0.16500 119244.000000
4767 15083 1 0.16500 119244.000000
4768 12473 1 0.16500 119244.000000
4768 15109 1 0.16500 119244.000000
4769 12474 1 0.16500 119244.000000
4769 13864 1 0.16500 119244.000000
4770 12474 1 0.16500 119244.000000
4770 14072 1 0.16500 119244.000000
4771 18361 1 0.16500 119244.000000
4771 21529 1 0.16500 119244.000000
4772 13751 1 0.16500 119244.000000
4772 18361 1 0.16500 119244.000000
4773 12475 1 0.16500 119244.000000
4773 23329 1 0.16500 119244.000000
4774 12475 1 0.16500 119244.000000
4774 12695 1 0.16500 119244.000000
4775 12475 1 0.16500 119244.000000
4775 12923 1 0.16500 119244.000000
4776 12475 1 0.16500 119244.000000
4776 24061 1 0.16500 119244.000000
4777 12476 1 0.16500 119244.000000
4777 23884 1 0.16500 119244.000000
4778 12476 1 0.16500 119244.000000
4778 13093 1 0.16500 119244.000000
4779 12476 1 0.16500 119244.000000
4779 18637 1 0.16500 119244.000000
4780 12476 1 0.16500 119244.000000
4780 12523 1 0.16500 119244.000000
4781 12477 1 0.16500 119244.000000
4781 15414 1 0.16500 119244.000000
4782 12477 1 0.16500 119244.000000
4782 14966 1 0.16500 119244.000000
4783 13518 1 0.16500 119244.000000
4783 15414 1 0.16500 119244.000000
4784 12478 1 0.16500 119244.000000
4784 15817 1 0.16500 119244.000000
4785 12478 1 0.16500 119244.000000
4785 18385 1 0.16500 119244.000000
4786 12479 1 0.16500 119244.000000
4786 16044 1 0.16500 119244.000000
4787 12479 1 0.16500 119244.000000
4787 12735 1 0.16500 119244.000000
4788 12479 1 0.16500 119244.000000
4788 14167 1 0.16500 119244.000000
4789 12201 1 0.16500 119244.000000
4789 23788 1 0.16500 119244.000000
4790 22009 1 0.16500 119244.000000
4790 22129 1 0.16500 119244.000000
4791 13378 1 0.16500 119244.000000
4791 22009 1 0.16500 119244.000000
4792 22009 1 0.16500 119244.000000
4792 23794 1 0.16500 119244.000000
4793 12480 1 0.16500 119244.000000
4793 13622 1 0.16500 119244.000000
4794 12480 1 0.16500 119244.000000
4794 13005 1 0.16500 119244.000000
4795 18565 1 0.16500 119244.000000
4795 24357 1 0.16500 119244.000000
4796 12481 1 0.16500 119244.000000
4796 14752 1 0.16500 119244.000000
4797 12481 1 0.16500 119244.000000
4797 13503 1 0.16500 119244.000000
4798 12481 1 0.16500 119244.000000
4798 15070 1 0.16500 119244.000000
4799 12481 1 0.16500 119244.000000
4799 14615 1 0.16500 119244.000000
4800 15789 1 0.16500 119244.000000
4800 19501 1 0.16500 119244.000000
4801 12482 1 0.16500 119244.000000
4801 12893 1 0.16500 119244.000000
4802 12893 1 0.16500 119244.000000
4802 15932 1 0.16500 119244.000000
4803 12482 1 0.16500 119244.000000
4803 14752 1 0.16500 119244.000000
4804 12483 1 0.16500 119244.000000
4804 15595 1 0.16500 119244.000000
4805 12483 1 0.16500 119244.000000
4805 14550 1 0.16500 119244.000000
4806 11920 1 0.16500 119244.000000
4806 12809 1 0.16500 119244.000000
4807 13359 1 0.16500 119244.000000
4807 22057 1 0.16500 119244.000000
4808 14428 1 0.16500 119244.000000
4808 22057 1 0.16500 119244.000000
4809 22057 1 0.16500 119244.000000
4809 24118 1 0.16500 119244.000000
4810 13688 1 0.16500 119244.000000
4810 23791 1 0.16500 119244.000000
4811 13688 1 0.16500 119244.000000
4811 16549 1 0.16500 119244.000000
4812 15121 1 0.16500 119244.000000
4812 23791 1 0.16500 119244.000000
4813 14487 1 0.16500 119244.000000
4813 21085 1 0.16500 119244.000000
4814 21085 1 0.16500 119244.000000
4814 22165 1 0.16500 119244.000000
4815 14986 1 0.16500 119244.000000
4815 17207 1 0.16500 119244.000000
4816 14513 1 0.16500 119244.000000
4816 17207 1 0.16500 119244.000000
4817 19417 1 0.16500 119244.000000
4817 22837 1 0.16500 119244.000000
4818 12484 1 0.16500 119244.000000
4818 15634 1 0.16500 119244.000000
4819 12484 1 0.16500 119244.000000
4819 13265 1 0.16500 119244.000000
4820 12484 1 0.16500 119244.000000
4820 15096 1 0.16500 119244.000000
4821 12485 1 0.16500 119244.000000
4821 12594 1 0.16500 119244.000000
4822 12485 1 0.16500 119244.000000
4822 13715 1 0.16500 119244.000000
4823 12485 1 0.16500 119244.000000
4823 13808 1 0.16500 119244.000000
4824 12485 1 0.16500 119244.000000
4824 14737 1 0.16500 119244.000000
4825 15550 1 0.16500 119244.000000
4825 19885 1 0.16500 119244.000000
4826 15515 1 0.16500 119244.000000
4826 19885 1 0.16500 119244.000000
4827 14152 1 0.16500 119244.000000
4827 19885 1 0.16500 119244.000000
4828 12486 1 0.16500 119244.000000
4828 13783 1 0.16500 119244.000000
4829 12486 1 0.16500 119244.000000
4829 12775 1 0.16500 119244.000000
4830 12486 1 0.16500 119244.000000
4830 15232 1 0.16500 119244.000000
4831 12487 1 0.16500 119244.000000
4831 16008 1 0.16500 119244.000000
4832 12487 1 0.16500 119244.000000
4832 14565 1 0.16500 119244.000000
4833 12487 1 0.16500 119244.000000
4833 15434 1 0.16500 119244.000000
4834 12487 1 0.16500 119244.000000
4834 12800 1 0.16500 119244.000000
4835 12488 1 0.16500 119244.000000
4835 14687 1 0.16500 119244.000000
4836 12488 1 0.16500 119244.000000
4836 16238 1 0.16500 119244.000000
4837 12488 1 0.16500 119244.000000
4837 13074 1 0.16500 119244.000000
4838 12489 1 0.16500 119244.000000
4838 13683 1 0.16500 119244.000000
4839 12489 1 0.16500 119244.000000
4839 13068 1 0.16500 119244.000000
4840 12489 1 0.16500 119244.000000
4840 14618 1 0.16500 119244.000000
4841 12490 1 0.16500 119244.000000
4841 13640 1 0.16500 119244.000000
4842 12490 1 0.16500 119244.000000
4842 14611 1 0.16500 119244.000000
4843 12490 1 0.16500 119244.000000
4843 14276 1 0.16500 119244.000000
4844 12490 1 0.16500 119244.000000
4844 12972 1 0.16500 119244.000000
4845 12491 1 0.16500 119244.000000
4845 12875 1 0.16500 119244.000000
4846 12491 1 0.16500 119244.000000
4846 13491 1 0.16500 119244.000000
4847 12491 1 0.16500 119244.000000
4847 14531 1 0.16500 119244.000000
4848 15610 1 0.16500 119244.000000
4848 20305 1 0.16500 119244.000000
4849 15610 1 0.16500 119244.000000
4849 17585 1 0.16500 119244.000000
4850 12492 1 0.16500 119244.000000
4850 14345 1 0.16500 119244.000000
4851 12492 1 0.16500 119244.000000
4851 13763 1 0.16500 119244.000000
4852 12492 1 0.16500 119244.000000
4852 15724 1 0.16500 119244.000000
4853 12493 1 0.16500 119244.000000
4853 21985 1 0.16500 119244.000000
4854 12493 1 0.16500 119244.000000
4854 14199 1 0.16500 119244.000000
4855 12493 1 0.16500 119244.000000
4855 14667 1 0.16500 119244.000000
4856 12494 1 0.16500 119244.000000
4856 15658 1 0.16500 119244.000000
4857 12494 1 0.16500 119244.000000
4857 15566 1 0.16500 119244.000000
4858 12495 1 0.16500 119244.000000
4858 15871 1 0.16500 119244.000000
4859 12495 1 0.16500 119244.000000
4859 13136 1 0.16500 119244.000000
4860 11942 1 0.16500 119244.000000
4860 14550 1 0.16500 119244.000000
4861 13059 1 0.16500 119244.000000
4861 17095 1 0.16500 119244.000000
4862 12974 1 0.16500 119244.000000
4862 17095 1 0.16500 119244.000000
4863 12496 1 0.16500 119244.000000
4863 15676 1 0.16500 119244.000000
4864 12496 1 0.16500 119244.000000
4864 15952 1 0.16500 119244.000000
4865 12496 1 0.16500 119244.000000
4865 14375 1 0.16500 119244.000000
4866 12496 1 0.16500 119244.000000
4866 16276 1 0.16500 119244.000000
4867 12497 1 0.16500 119244.000000
4867 14669 1 0.16500 119244.000000
4868 12497 1 0.16500 119244.000000
4868 14944 1 0.16500 119244.000000
4869 12497 1 0.16500 119244.000000
4869 14928 1 0.16500 119244.000000
4870 19033 1 0.16500 119244.000000
4870 23341 1 0.16500 119244.000000
4871 14628 1 0.16500 119244.000000
4871 19033 1 0.16500 119244.000000
4872 12498 1 0.16500 119244.000000
4872 14763 1 0.16500 119244.000000
4873 12499 1 0.16500 119244.000000
4873 13513 1 0.16500 119244.000000
4874 12499 1 0.16500 119244.000000
4874 14767 1 0.16500 119244.000000
4875 12499 1 0.16500 119244.000000
4875 14069 1 0.16500 119244.000000
4876 12500 1 0.16500 119244.000000
4876 12550 1 0.16500 119244.000000
4877 12500 1 0.16500 119244.000000
4877 15299 1 0.16500 119244.000000
4878 12500 1 0.16500 119244.000000
4878 13223 1 0.16500 119244.000000
4879 12501 1 0.16500 119244.000000
4879 15480 1 0.16500 119244.000000
4880 12502 1 0.16500 119244.000000
4880 13355 1 0.16500 119244.000000
4881 12502 1 0.16500 119244.000000
4881 15976 1 0.16500 119244.000000
4882 12502 1 0.16500 119244.000000
4882 13325 1 0.16500 119244.000000
4883 12503 1 0.16500 119244.000000
4883 13509 1 0.16500 119244.000000
4884 12503 1 0.16500 119244.000000
4884 13601 1 0.16500 119244.000000
4885 12503 1 0.16500 119244.000000
4885 14391 1 0.16500 119244.000000
4886 14703 1 0.16500 119244.000000
4886 17235 1 0.16500 119244.000000
4887 12504 1 0.16500 119244.000000
4887 16243 1 0.16500 119244.000000
4888 12504 1 0.16500 119244.000000
4888 12832 1 0.16500 119244.000000
4889 12504 1 0.16500 119244.000000
4889 15658 1 0.16500 119244.000000
4890 12504 1 0.16500 119244.000000
4890 14629 1 0.16500 119244.000000
4891 12505 1 0.16500 119244.000000
4891 12675 1 0.16500 119244.000000
4892 12505 1 0.16500 119244.000000
4892 14187 1 0.16500 119244.000000
4893 12505 1 0.16500 119244.000000
4893 14116 1 0.16500 119244.000000
4894 13988 1 0.16500 119244.000000
4894 24362 1 0.16500 119244.000000
4895 13153 1 0.16500 119244.000000
4895 23797 1 0.16500 119244.000000
4896 23797 1 0.16500 119244.000000
4896 23971 1 0.16500 119244.000000
4897 12506 1 0.16500 119244.000000
4897 15186 1 0.16500 119244.000000
4898 12506 1 0.16500 119244.000000
4898 13627 1 0.16500 119244.000000
4899 13962 1 0.16500 119244.000000
4899 15733 1 0.16500 119244.000000
4900 13962 1 0.16500 119244.000000
4900 23800 1 0.16500 119244.000000
4901 12640 1 0.16500 119244.000000
4901 23800 1 0.16500 119244.000000
4902 12507 1 0.16500 119244.000000
4902 12980 1 0.16500 119244.000000
4903 12507 1 0.16500 119244.000000
4903 14743 1 0.16500 119244.000000
4904 12507 1 0.16500 119244.000000
4904 14092 1 0.16500 119244.000000
4905 12507 1 0.16500 119244.000000
4905 13050 1 0.16500 119244.000000
4906 12508 1 0.16500 119244.000000
4906 13842 1 0.16500 119244.000000
4907 12508 1 0.16500 119244.000000
4907 13551 1 0.16500 119244.000000
4908 12508 1 0.16500 119244.000000
4908 12971 1 0.16500 119244.000000
4909 12508 1 0.16500 119244.000000
4909 15115 1 0.16500 119244.000000
4910 12509 1 0.16500 119244.000000
4910 16039 1 0.16500 119244.000000
4911 12509 1 0.16500 119244.000000
4911 15999 1 0.16500 119244.000000
4912 12509 1 0.16500 119244.000000
4912 13172 1 0.16500 119244.000000
4913 12509 1 0.16500 119244.000000
4913 14565 1 0.16500 119244.000000
4914 12510 1 0.16500 119244.000000
4914 14814 1 0.16500 119244.000000
4915 12510 1 0.16500 119244.000000
4915 13409 1 0.16500 119244.000000
4916 12510 1 0.16500 119244.000000
4916 16036 1 0.16500 119244.000000
4917 12510 1 0.16500 119244.000000
4917 15183 1 0.16500 119244.000000
4918 12511 1 0.16500 119244.000000
4918 13999 1 0.16500 119244.000000
4919 12511 1 0.16500 119244.000000
4919 15033 1 0.16500 119244.000000
4920 12511 1 0.16500 119244.000000
4920 13312 1 0.16500 119244.000000
4921 12511 1 0.16500 119244.000000
4921 15251 1 0.16500 119244.000000
4922 13173 1 0.16500 119244.000000
4922 16801 1 0.16500 119244.000000
4923 12512 1 0.16500 119244.000000
4923 14872 1 0.16500 119244.000000
4924 12512 1 0.16500 119244.000000
4924 12648 1 0.16500 119244.000000
4925 12512 1 0.16500 119244.000000
4925 14275 1 0.16500 119244.000000
4926 12513 1 0.16500 119244.000000
4926 13505 1 0.16500 119244.000000
4927 12513 1 0.16500 119244.000000
4927 12710 1 0.16500 119244.000000
4928 12513 1 0.16500 119244.000000
4928 12751 1 0.16500 119244.000000
4929 19777 1 0.16500 119244.000000
4929 23137 1 0.16500 119244.000000
4930 20881 1 0.16500 119244.000000
4930 23137 1 0.16500 119244.000000
4931 12514 1 0.16500 119244.000000
4931 16140 1 0.16500 119244.000000
4932 13954 1 0.16500 119244.000000
4932 23803 1 0.16500 119244.000000
4933 12515 1 0.16500 119244.000000
4933 13492 1 0.16500 119244.000000
4934 12515 1 0.16500 119244.000000
4934 14547 1 0.16500 119244.000000
4935 12515 1 0.16500 119244.000000
4935 14266 1 0.16500 119244.000000
4936 12515 1 0.16500 119244.000000
4936 15648 1 0.16500 119244.000000
4937 14720 1 0.16500 119244.000000
4937 23881 1 0.16500 119244.000000
4938 19897 1 0.16500 119244.000000
4938 22957 1 0.16500 119244.000000
4939 14720 1 0.16500 119244.000000
4939 22957 1 0.16500 119244.000000
4940 15624 1 0.16500 119244.000000
4940 15910 1 0.16500 119244.000000
4941 12516 1 0.16500 119244.000000
4941 12873 1 0.16500 119244.000000
4942 12516 1 0.16500 119244.000000
4942 15910 1 0.16500 119244.000000
4943 12516 1 0.16500 119244.000000
4943 14477 1 0.16500 119244.000000
4944 12517 1 0.16500 119244.000000
4944 15381 1 0.16500 119244.000000
4945 12517 1 0.16500 119244.000000
4945 13884 1 0.16500 119244.000000
4946 12517 1 0.16500 119244.000000
4946 14670 1 0.16500 119244.000000
4947 12518 1 0.16500 119244.000000
4947 12840 1 0.16500 119244.000000
4948 12518 1 0.16500 119244.000000
4948 15999 1 0.16500 119244.000000
4949 12518 1 0.16500 119244.000000
4949 13119 1 0.16500 119244.000000
4950 12519 1 0.16500 119244.000000
4950 15282 1 0.16500 119244.000000
4951 12519 1 0.16500 119244.000000
4951 15243 1 0.16500 119244.000000
4952 12519 1 0.16500 119244.000000
4952 24091 1 0.16500 119244.000000
4953 12519 1 0.16500 119244.000000
4953 15060 1 0.16500 119244.000000
4954 12520 1 0.16500 119244.000000
4954 14879 1 0.16500 119244.000000
4955 12520 1 0.16500 119244.000000
4955 20953 1 0.16500 119244.000000
4956 12520 1 0.16500 119244.000000
4956 23818 1 0.16500 119244.000000
4957 12521 1 0.16500 119244.000000
4957 15273 1 0.16500 119244.000000
4958 12521 1 0.16500 119244.000000
4958 14840 1 0.16500 119244.000000
4959 12521 1 0.16500 119244.000000
4959 13375 1 0.16500 119244.000000
4960 12521 1 0.16500 119244.000000
4960 14006 1 0.16500 119244.000000
4961 15840 1 0.16500 119244.000000
4961 21841 1 0.16500 119244.000000
4962 12522 1 0.16500 119244.000000
4962 14236 1 0.16500 119244.000000
4963 12522 1 0.16500 119244.000000
4963 18913 1 0.16500 119244.000000
4964 12523 1 0.16500 119244.000000
4964 13961 1 0.16500 119244.000000
4965 12523 1 0.16500 119244.000000
4965 15644 1 0.16500 119244.000000
4966 12523 1 0.16500 119244.000000
4966 14751 1 0.16500 119244.000000
4967 12524 1 0.16500 119244.000000
4967 15650 1 0.16500 119244.000000
4968 12524 1 0.16500 119244.000000
4968 15455 1 0.16500 119244.000000
4969 12525 1 0.16500 119244.000000
4969 15921 1 0.16500 119244.000000
4970 12525 1 0.16500 119244.000000
4970 15793 1 0.16500 119244.000000
4971 12525 1 0.16500 119244.000000
4971 17081 1 0.16500 119244.000000
4972 12526 1 0.16500 119244.000000
4972 15028 1 0.16500 119244.000000
4973 12526 1 0.16500 119244.000000
4973 12940 1 0.16500 119244.000000
4974 12526 1 0.16500 119244.000000
4974 14019 1 0.16500 119244.000000
4975 12526 1 0.16500 119244.000000
4975 14902 1 0.16500 119244.000000
4976 12527 1 0.16500 119244.000000
4976 16054 1 0.16500 119244.000000
4977 12527 1 0.16500 119244.000000
4977 16167 1 0.16500 119244.000000
4978 12527 1 0.16500 119244.000000
4978 16024 1 0.16500 119244.000000
4979 12528 1 0.16500 119244.000000
4979 15467 1 0.16500 119244.000000
4980 12528 1 0.16500 119244.000000
4980 13976 1 0.16500 119244.000000
4981 18117 1 0.16500 119244.000000
4981 24367 1 0.16500 119244.000000
4982 13256 1 0.16500 119244.000000
4982 24367 1 0.16500 119244.000000
4983 12529 1 0.16500 119244.000000
4983 14601 1 0.16500 119244.000000
4984 12529 1 0.16500 119244.000000
4984 13875 1 0.16500 119244.000000
4985 12529 1 0.16500 119244.000000
4985 13331 1 0.16500 119244.000000
4986 12530 1 0.16500 119244.000000
4986 13264 1 0.16500 119244.000000
4987 12530 1 0.16500 119244.000000
4987 13309 1 0.16500 119244.000000
4988 12530 1 0.16500 119244.000000
4988 15871 1 0.16500 119244.000000
4989 12531 1 0.16500 119244.000000
4989 14088 1 0.16500 119244.000000
4990 15721 1 0.16500 119244.000000
4990 22609 1 0.16500 119244.000000
4991 21421 1 0.16500 119244.000000
4991 22609 1 0.16500 119244.000000
4992 12532 1 0.16500 119244.000000
4992 15998 1 0.16500 119244.000000
4993 12532 1 0.16500 119244.000000
4993 13787 1 0.16500 119244.000000
4994 12533 1 0.16500 119244.000000
4994 21397 1 0.16500 119244.000000
4995 12533 1 0.16500 119244.000000
4995 13130 1 0.16500 119244.000000
4996 14316 1 0.16500 119244.000000
4996 23185 1 0.16500 119244.000000
4997 12566 1 0.16500 119244.000000
4997 23185 1 0.16500 119244.000000
4998 12534 1 0.16500 119244.000000
4998 13724 1 0.16500 119244.000000
4999 12534 1 0.16500 119244.000000
4999 14147 1 0.16500 119244.000000
5000 12534 1 0.16500 119244.000000
5000 23869 1 0.16500 119244.000000
5001 12534 1 0.16500 119244.000000
5001 17487 1 0.16500 119244.000000
5002 12535 1 0.16500 119244.000000
5002 13516 1 0.16500 119244.000000
5003 12535 1 0.16500 119244.000000
5003 14990 1 0.16500 119244.000000
5004 12535 1 0.16500 119244.000000
5004 13264 1 0.16500 119244.000000
5005 12536 1 0.16500 119244.000000
5005 13949 1 0.16500 119244.000000
5006 12536 1 0.16500 119244.000000
5006 13682 1 0.16500 119244.000000
5007 12536 1 0.16500 119244.000000
5007 12982 1 0.16500 119244.000000
5008 12537 1 0.16500 119244.000000
5008 12591 1 0.16500 119244.000000
5009 12537 1 0.16500 119244.000000
5009 14326 1 0.16500 119244.000000
5010 12538 1 0.16500 119244.000000
5010 13490 1 0.16500 119244.000000
5011 13490 1 0.16500 119244.000000
5011 14994 1 0.16500 119244.000000
5012 15992 1 0.16500 119244.000000
5012 16084 1 0.16500 119244.000000
5013 12538 1 0.16500 119244.000000
5013 15992 1 0.16500 119244.000000
5014 12539 1 0.16500 119244.000000
5014 14010 1 0.16500 119244.000000
5015 12539 1 0.16500 119244.000000
5015 16097 1 0.16500 119244.000000
5016 12539 1 0.16500 119244.000000
5016 14970 1 0.16500 119244.000000
5017 12539 1 0.16500 119244.000000
5017 14704 1 0.16500 119244.000000
5018 12540 1 0.16500 119244.000000
5018 12836 1 0.16500 119244.000000
5019 12540 1 0.16500 119244.000000
5019 18745 1 0.16500 119244.000000
5020 12540 1 0.16500 119244.000000
5020 23401 1 0.16500 119244.000000
5021 12541 1 0.16500 119244.000000
5021 14756 1 0.16500 119244.000000
5022 12542 1 0.16500 119244.000000
5022 15080 1 0.16500 119244.000000
5023 12542 1 0.16500 119244.000000
5023 13584 1 0.16500 119244.000000
5024 12542 1 0.16500 119244.000000
5024 16193 1 0.16500 119244.000000
5025 12542 1 0.16500 119244.000000
5025 12984 1 0.16500 119244.000000
5026 12543 1 0.16500 119244.000000
5026 14257 1 0.16500 119244.000000
5027 12543 1 0.16500 119244.000000
5027 12975 1 0.16500 119244.000000
5028 13456 1 0.16500 119244.000000
5028 13891 1 0.16500 119244.000000
5029 12544 1 0.16500 119244.000000
5029 13456 1 0.16500 119244.000000
5030 17991 1 0.16500 119244.000000
5030 21589 1 0.16500 119244.000000
5031 13400 1 0.16500 119244.000000
5031 21589 1 0.16500 119244.000000
5032 12545 1 0.16500 119244.000000
5032 14634 1 0.16500 119244.000000
5033 12545 1 0.16500 119244.000000
5033 13382 1 0.16500 119244.000000
5034 12545 1 0.16500 119244.000000
5034 13701 1 0.16500 119244.000000
5035 12545 1 0.16500 119244.000000
5035 14160 1 0.16500 119244.000000
5036 12546 1 0.16500 119244.000000
5036 15350 1 0.16500 119244.000000
5037 12546 1 0.16500 119244.000000
5037 14079 1 0.16500 119244.000000
5038 14848 1 0.16500 119244.000000
5038 16633 1 0.16500 119244.000000
5039 12547 1 0.16500 119244.000000
5039 23914 1 0.16500 119244.000000
5040 12547 1 0.16500 119244.000000
5040 13807 1 0.16500 119244.000000
5041 12547 1 0.16500 119244.000000
5041 22525 1 0.16500 119244.000000
5042 12547 1 0.16500 119244.000000
5042 14110 1 0.16500 119244.000000
5043 16941 1 0.16500 119244.000000
5043 24259 1 0.16500 119244.000000
5044 14701 1 0.16500 119244.000000
5044 16941 1 0.16500 119244.000000
5045 12548 1 0.16500 119244.000000
5045 15966 1 0.16500 119244.000000
5046 12548 1 0.16500 119244.000000
5046 13742 1 0.16500 119244.000000
5047 12548 1 0.16500 119244.000000
5047 13451 1 0.16500 119244.000000
5048 12549 1 0.16500 119244.000000
5048 15236 1 0.16500 119244.000000
5049 15547 1 0.16500 119244.000000
5049 16226 1 0.16500 119244.000000
5050 12549 1 0.16500 119244.000000
5050 16226 1 0.16500 119244.000000
5051 12549 1 0.16500 119244.000000
5051 13106 1 0.16500 119244.000000
5052 12550 1 0.16500 119244.000000
5052 13538 1 0.16500 119244.000000
5053 12550 1 0.16500 119244.000000
5053 13997 1 0.16500 119244.000000
5054 18103 1 0.16500 119244.000000
5054 19441 1 0.16500 119244.000000
5055 13364 1 0.16500 119244.000000
5055 19441 1 0.16500 119244.000000
5056 12551 1 0.16500 119244.000000
5056 13297 1 0.16500 119244.000000
5057 12551 1 0.16500 119244.000000
5057 16014 1 0.16500 119244.000000
5058 12551 1 0.16500 119244.000000
5058 15727 1 0.16500 119244.000000
5059 15053 1 0.16500 119244.000000
5059 16015 1 0.16500 119244.000000
5060 12552 1 0.16500 119244.000000
5060 15202 1 0.16500 119244.000000
5061 12552 1 0.16500 119244.000000
5061 15053 1 0.16500 119244.000000
5062 12553 1 0.16500 119244.000000
5062 12799 1 0.16500 119244.000000
5063 12553 1 0.16500 119244.000000
5063 12720 1 0.16500 119244.000000
5064 12553 1 0.16500 119244.000000
5064 15914 1 0.16500 119244.000000
5065 12554 1 0.16500 119244.000000
5065 14384 1 0.16500 119244.000000
5066 12554 1 0.16500 119244.000000
5066 13795 1 0.16500 119244.000000
5067 12554 1 0.16500 119244.000000
5067 12981 1 0.16500 119244.000000
5068 12555 1 0.16500 119244.000000
5068 13811 1 0.16500 119244.000000
5069 12555 1 0.16500 119244.000000
5069 19237 1 0.16500 119244.000000
5070 12555 1 0.16500 119244.000000
5070 13974 1 0.16500 119244.000000
5071 12556 1 0.16500 119244.000000
5071 16279 1 0.16500 119244.000000
5072 12556 1 0.16500 119244.000000
5072 15577 1 0.16500 119244.000000
5073 12556 1 0.16500 119244.000000
5073 13230 1 0.16500 119244.000000
5074 12557 1 0.16500 119244.000000
5074 13712 1 0.16500 119244.000000
5075 12557 1 0.16500 119244.000000
5075 15230 1 0.16500 119244.000000
5076 12557 1 0.16500 119244.000000
5076 14160 1 0.16500 119244.000000
5077 12557 1 0.16500 119244.000000
5077 15223 1 0.16500 119244.000000
5078 12558 1 0.16500 119244.000000
5078 14074 1 0.16500 119244.000000
5079 12558 1 0.16500 119244.000000
5079 14318 1 0.16500 119244.000000
5080 12558 1 0.16500 119244.000000
5080 15732 1 0.16500 119244.000000
5081 12559 1 0.16500 119244.000000
5081 16262 1 0.16500 119244.000000
5082 12559 1 0.16500 119244.000000
5082 15439 1 0.16500 119244.000000
5083 12560 1 0.16500 119244.000000
5083 13992 1 0.16500 119244.000000
5084 12560 1 0.16500 119244.000000
5084 13983 1 0.16500 119244.000000
5085 12561 1 0.16500 119244.000000
5085 15203 1 0.16500 119244.000000
5086 12561 1 0.16500 119244.000000
5086 13420 1 0.16500 119244.000000
5087 12561 1 0.16500 119244.000000
5087 14713 1 0.16500 119244.000000
5088 12562 1 0.16500 119244.000000
5088 13187 1 0.16500 119244.000000
5089 12562 1 0.16500 119244.000000
5089 15633 1 0.16500 119244.000000
5090 12562 1 0.16500 119244.000000
5090 15255 1 0.16500 119244.000000
5091 12562 1 0.16500 119244.000000
5091 16969 1 0.16500 119244.000000
5092 12563 1 0.16500 119244.000000
5092 24220 1 0.16500 119244.000000
5093 12563 1 0.16500 119244.000000
5093 22801 1 0.16500 119244.000000
5094 12563 1 0.16500 119244.000000
5094 13566 1 0.16500 119244.000000
5095 12563 1 0.16500 119244.000000
5095 23935 1 0.16500 119244.000000
5096 12564 1 0.16500 119244.000000
5096 15737 1 0.16500 119244.000000
5097 12564 1 0.16500 119244.000000
5097 14119 1 0.16500 119244.000000
5098 12564 1 0.16500 119244.000000
5098 14179 1 0.16500 119244.000000
5099 12564 1 0.16500 119244.000000
5099 14453 1 0.16500 119244.000000
5100 12565 1 0.16500 119244.000000
5100 15736 1 0.16500 119244.000000
5101 12565 1 0.16500 119244.000000
5101 13839 1 0.16500 119244.000000
5102 12565 1 0.16500 119244.000000
5102 14442 1 0.16500 119244.000000
5103 12565 1 0.16500 119244.000000
5103 16064 1 0.16500 119244.000000
5104 12985 1 0.16500 119244.000000
5104 18841 1 0.16500 119244.000000
5105 18841 1 0.16500 119244.000000
5105 19345 1 0.16500 119244.000000
5106 12566 1 0.16500 119244.000000
5106 16267 1 0.16500 119244.000000
5107 11711 1 0.16500 119244.000000
5107 12566 1 0.16500 119244.000000
5108 12567 1 0.16500 119244.000000
5108 15131 1 0.16500 119244.000000
5109 12567 1 0.16500 119244.000000
5109 14753 1 0.16500 119244.000000
5110 12567 1 0.16500 119244.000000
5110 13922 1 0.16500 119244.000000
5111 12567 1 0.16500 119244.000000
5111 15239 1 0.16500 119244.000000
5112 12568 1 0.16500 119244.000000
5112 12849 1 0.16500 119244.000000
5113 12568 1 0.16500 119244.000000
5113 12956 1 0.16500 119244.000000
5114 12568 1 0.16500 119244.000000
5114 13398 1 0.16500 119244.000000
5115 12956 1 0.16500 119244.000000
5115 13451 1 0.16500 119244.000000
5116 12569 1 0.16500 119244.000000
5116 15909 1 0.16500 119244.000000
5117 12569 1 0.16500 119244.000000
5117 16255 1 0.16500 119244.000000
5118 12570 1 0.16500 119244.000000
5118 14957 1 0.16500 119244.000000
5119 12570 1 0.16500 119244.000000
5119 14866 1 0.16500 119244.000000
5120 12570 1 0.16500 119244.000000
5120 13581 1 0.16500 119244.000000
5121 12570 1 0.16500 119244.000000
5121 13511 1 0.16500 119244.000000
5122 12571 1 0.16500 119244.000000
5122 14299 1 0.16500 119244.000000
5123 12571 1 0.16500 119244.000000
5123 12572 1 0.16500 119244.000000
5124 12571 1 0.16500 119244.000000
5124 12658 1 0.16500 119244.000000
5125 12572 1 0.16500 119244.000000
5125 14173 1 0.16500 119244.000000
5126 12572 1 0.16500 119244.000000
5126 15982 1 0.16500 119244.000000
5127 12573 1 0.16500 119244.000000
5127 14281 1 0.16500 119244.000000
5128 12573 1 0.16500 119244.000000
5128 15188 1 0.16500 119244.000000
5129 12573 1 0.16500 119244.000000
5129 15722 1 0.16500 119244.000000
5130 20917 1 0.16500 119244.000000
5130 24031 1 0.16500 119244.000000
5131 13778 1 0.16500 119244.000000
5131 20917 1 0.16500 119244.000000
5132 13054 1 0.16500 119244.000000
5132 20917 1 0.16500 119244.000000
5133 12574 1 0.16500 119244.000000
5133 16913 1 0.16500 119244.000000
5134 12574 1 0.16500 119244.000000
5134 23806 1 0.16500 119244.000000
5135 14404 1 0.16500 119244.000000
5135 19861 1 0.16500 119244.000000
5136 13222 1 0.16500 119244.000000
5136 19861 1 0.16500 119244.000000
5137 12575 1 0.16500 119244.000000
5137 14907 1 0.16500 119244.000000
5138 11769 1 0.16500 119244.000000
5138 12575 1 0.16500 119244.000000
5139 12575 1 0.16500 119244.000000
5139 15263 1 0.16500 119244.000000
5140 12575 1 0.16500 119244.000000
5140 13576 1 0.16500 119244.000000
5141 16717 1 0.16500 119244.000000
5141 21445 1 0.16500 119244.000000
5142 20713 1 0.16500 119244.000000
5142 21445 1 0.16500 119244.000000
5143 15003 1 0.16500 119244.000000
5143 21445 1 0.16500 119244.000000
5144 12576 1 0.16500 119244.000000
5144 13522 1 0.16500 119244.000000
5145 12576 1 0.16500 119244.000000
5145 15354 1 0.16500 119244.000000
5146 12576 1 0.16500 119244.000000
5146 13266 1 0.16500 119244.000000
5147 12576 1 0.16500 119244.000000
5147 14754 1 0.16500 119244.000000
5148 12577 1 0.16500 119244.000000
5148 14945 1 0.16500 119244.000000
5149 12577 1 0.16500 119244.000000
5149 13628 1 0.16500 119244.000000
5150 12577 1 0.16500 119244.000000
5150 14034 1 0.16500 119244.000000
5151 12578 1 0.16500 119244.000000
5151 13688 1 0.16500 119244.000000
5152 12578 1 0.16500 119244.000000
5152 14431 1 0.16500 119244.000000
5153 12578 1 0.16500 119244.000000
5153 15418 1 0.16500 119244.000000
5154 12579 1 0.16500 119244.000000
5154 14001 1 0.16500 119244.000000
5155 12579 1 0.16500 119244.000000
5155 12640 1 0.16500 119244.000000
5156 12579 1 0.16500 119244.000000
5156 12691 1 0.16500 119244.000000
5157 11271 1 0.16500 119244.000000
5157 12580 1 0.16500 119244.000000
5158 12580 1 0.16500 119244.000000
5158 12632 1 0.16500 119244.000000
5159 12580 1 0.16500 119244.000000
5159 12905 1 0.16500 119244.000000
5160 12580 1 0.16500 119244.000000
5160 13989 1 0.16500 119244.000000
5161 11532 1 0.16500 119244.000000
5161 16088 1 0.16500 119244.000000
5162 12581 1 0.16500 119244.000000
5162 16088 1 0.16500 119244.000000
5163 12582 1 0.16500 119244.000000
5163 13173 1 0.16500 119244.000000
5164 12582 1 0.16500 119244.000000
5164 14697 1 0.16500 119244.000000
5165 12583 1 0.16500 119244.000000
5165 15259 1 0.16500 119244.000000
5166 12583 1 0.16500 119244.000000
5166 12946 1 0.16500 119244.000000
5167 12584 1 0.16500 119244.000000
5167 15960 1 0.16500 119244.000000
5168 12584 1 0.16500 119244.000000
5168 16165 1 0.16500 119244.000000
5169 12585 1 0.16500 119244.000000
5169 14312 1 0.16500 119244.000000
5170 12585 1 0.16500 119244.000000
5170 15383 1 0.16500 119244.000000
5171 12586 1 0.16500 119244.000000
5171 23809 1 0.16500 119244.000000
5172 18145 1 0.16500 119244.000000
5172 23830 1 0.16500 119244.000000
5173 18005 1 0.16500 119244.000000
5173 23449 1 0.16500 119244.000000
5174 15108 1 0.16500 119244.000000
5174 23449 1 0.16500 119244.000000
5175 12587 1 0.16500 119244.000000
5175 13254 1 0.16500 119244.000000
5176 12587 1 0.16500 119244.000000
5176 15400 1 0.16500 119244.000000
5177 12587 1 0.16500 119244.000000
5177 15638 1 0.16500 119244.000000
5178 12587 1 0.16500 119244.000000
5178 23635 1 0.16500 119244.000000
5179 12588 1 0.16500 119244.000000
5179 14685 1 0.16500 119244.000000
5180 12588 1 0.16500 119244.000000
5180 14979 1 0.16500 119244.000000
5181 12588 1 0.16500 119244.000000
5181 12651 1 0.16500 119244.000000
5182 12589 1 0.16500 119244.000000
5182 23983 1 0.16500 119244.000000
5183 12589 1 0.16500 119244.000000
5183 21145 1 0.16500 119244.000000
5184 12589 1 0.16500 119244.000000
5184 14996 1 0.16500 119244.000000
5185 12590 1 0.16500 119244.000000
5185 15189 1 0.16500 119244.000000
5186 12590 1 0.16500 119244.000000
5186 15916 1 0.16500 119244.000000
5187 12590 1 0.16500 119244.000000
5187 13312 1 0.16500 119244.000000
5188 21121 1 0.16500 119244.000000
5188 21793 1 0.16500 119244.000000
5189 14975 1 0.16500 119244.000000
5189 21793 1 0.16500 119244.000000
5190 12591 1 0.16500 119244.000000
5190 15501 1 0.16500 119244.000000
5191 12592 1 0.16500 119244.000000
5191 13714 1 0.16500 119244.000000
5192 12592 1 0.16500 119244.000000
5192 13846 1 0.16500 119244.000000
5193 12592 1 0.16500 119244.000000
5193 13497 1 0.16500 119244.000000
5194 12593 1 0.16500 119244.000000
5194 14605 1 0.16500 119244.000000
5195 12593 1 0.16500 119244.000000
5195 15868 1 0.16500 119244.000000
5196 12593 1 0.16500 119244.000000
5196 13700 1 0.16500 119244.000000
5197 11571 1 0.16500 119244.000000
5197 12594 1 0.16500 119244.000000
5198 12594 1 0.16500 119244.000000
5198 16092 1 0.16500 119244.000000
5199 12594 1 0.16500 119244.000000
5199 13467 1 0.16500 119244.000000
5200 12595 1 0.16500 119244.000000
5200 16232 1 0.16500 119244.000000
5201 12595 1 0.16500 119244.000000
5201 13165 1 0.16500 119244.000000
5202 12595 1 0.16500 119244.000000
5202 13136 1 0.16500 119244.000000
5203 12596 1 0.16500 119244.000000
5203 13893 1 0.16500 119244.000000
5204 11584 1 0.16500 119244.000000
5204 12596 1 0.16500 119244.000000
5205 12596 1 0.16500 119244.000000
5205 12744 1 0.16500 119244.000000
5206 12597 1 0.16500 119244.000000
5206 13960 1 0.16500 119244.000000
5207 13276 1 0.16500 119244.000000
5207 13960 1 0.16500 119244.000000
5208 12597 1 0.16500 119244.000000
5208 13981 1 0.16500 119244.000000
5209 12597 1 0.16500 119244.000000
5209 15447 1 0.16500 119244.000000
5210 12598 1 0.16500 119244.000000
5210 13543 1 0.16500 119244.000000
5211 12598 1 0.16500 119244.000000
5211 14502 1 0.16500 119244.000000
5212 12598 1 0.16500 119244.000000
5212 13950 1 0.16500 119244.000000
5213 12598 1 0.16500 119244.000000
5213 15920 1 0.16500 119244.000000
5214 12599 1 0.16500 119244.000000
5214 12749 1 0.16500 119244.000000
5215 12599 1 0.16500 119244.000000
5215 16111 1 0.16500 119244.000000
5216 12599 1 0.16500 119244.000000
5216 23998 1 0.16500 119244.000000
5217 12600 1 0.16500 119244.000000
5217 12808 1 0.16500 119244.000000
5218 12600 1 0.16500 119244.000000
5218 12942 1 0.16500 119244.000000
5219 12600 1 0.16500 119244.000000
5219 12970 1 0.16500 119244.000000
5220 12600 1 0.16500 119244.000000
5220 15647 1 0.16500 119244.000000
5221 15527 1 0.16500 119244.000000
5221 23806 1 0.16500 119244.000000
5222 12601 1 0.16500 119244.000000
5222 16032 1 0.16500 119244.000000
5223 13775 1 0.16500 119244.000000
5223 14573 1 0.16500 119244.000000
5224 12602 1 0.16500 119244.000000
5224 13775 1 0.16500 119244.000000
5225 12602 1 0.16500 119244.000000
5225 15861 1 0.16500 119244.000000
5226 12602 1 0.16500 119244.000000
5226 15846 1 0.16500 119244.000000
5227 12603 1 0.16500 119244.000000
5227 15852 1 0.16500 119244.000000
5228 12603 1 0.16500 119244.000000
5228 14660 1 0.16500 119244.000000
5229 12603 1 0.16500 119244.000000
5229 13118 1 0.16500 119244.000000
5230 12603 1 0.16500 119244.000000
5230 14524 1 0.16500 119244.000000
5231 15161 1 0.16500 119244.000000
5231 15258 1 0.16500 119244.000000
5232 12604 1 0.16500 119244.000000
5232 13105 1 0.16500 119244.000000
5233 12604 1 0.16500 119244.000000
5233 15161 1 0.16500 119244.000000
5234 18685 1 0.16500 119244.000000
5234 18697 1 0.16500 119244.000000
5235 14298 1 0.16500 119244.000000
5235 18685 1 0.16500 119244.000000
5236 12605 1 0.16500 119244.000000
5236 13413 1 0.16500 119244.000000
5237 12605 1 0.16500 119244.000000
5237 15557 1 0.16500 119244.000000
5238 12606 1 0.16500 119244.000000
5238 15686 1 0.16500 119244.000000
5239 14500 1 0.16500 119244.000000
5239 15686 1 0.16500 119244.000000
5240 12606 1 0.16500 119244.000000
5240 14666 1 0.16500 119244.000000
5241 12606 1 0.16500 119244.000000
5241 14265 1 0.16500 119244.000000
5242 12607 1 0.16500 119244.000000
5242 13446 1 0.16500 119244.000000
5243 12607 1 0.16500 119244.000000
5243 14733 1 0.16500 119244.000000
5244 12607 1 0.16500 119244.000000
5244 15713 1 0.16500 119244.000000
5245 12607 1 0.16500 119244.000000
5245 13078 1 0.16500 119244.000000
5246 12608 1 0.16500 119244.000000
5246 13256 1 0.16500 119244.000000
5247 12608 1 0.16500 119244.000000
5247 13452 1 0.16500 119244.000000
5248 12608 1 0.16500 119244.000000
5248 13307 1 0.16500 119244.000000
5249 12609 1 0.16500 119244.000000
5249 13866 1 0.16500 119244.000000
5250 12609 1 0.16500 119244.000000
5250 13802 1 0.16500 119244.000000
5251 12609 1 0.16500 119244.000000
5251 23884 1 0.16500 119244.000000
5252 15417 1 0.16500 119244.000000
5252 15552 1 0.16500 119244.000000
5253 12610 1 0.16500 119244.000000
5253 15552 1 0.16500 119244.000000
5254 12610 1 0.16500 119244.000000
5254 14885 1 0.16500 119244.000000
5255 12610 1 0.16500 119244.000000
5255 15592 1 0.16500 119244.000000
5256 20605 1 0.16500 119244.000000
5256 23986 1 0.16500 119244.000000
5257 20605 1 0.16500 119244.000000
5257 24022 1 0.16500 119244.000000
5258 12611 1 0.16500 119244.000000
5258 17277 1 0.16500 119244.000000
5259 12611 1 0.16500 119244.000000
5259 14845 1 0.16500 119244.000000
5260 15616 1 0.16500 119244.000000
5260 22021 1 0.16500 119244.000000
5261 22021 1 0.16500 119244.000000
5261 23941 1 0.16500 119244.000000
5262 12612 1 0.16500 119244.000000
5262 16156 1 0.16500 119244.000000
5263 12612 1 0.16500 119244.000000
5263 15711 1 0.16500 119244.000000
5264 12612 1 0.16500 119244.000000
5264 15035 1 0.16500 119244.000000
5265 12613 1 0.16500 119244.000000
5265 14229 1 0.16500 119244.000000
5266 12613 1 0.16500 119244.000000
5266 16156 1 0.16500 119244.000000
5267 12614 1 0.16500 119244.000000
5267 13624 1 0.16500 119244.000000
5268 12614 1 0.16500 119244.000000
5268 17991 1 0.16500 119244.000000
5269 12614 1 0.16500 119244.000000
5269 19765 1 0.16500 119244.000000
5270 12614 1 0.16500 119244.000000
5270 19909 1 0.16500 119244.000000
5271 12615 1 0.16500 119244.000000
5271 14155 1 0.16500 119244.000000
5272 12615 1 0.16500 119244.000000
5272 14968 1 0.16500 119244.000000
5273 12615 1 0.16500 119244.000000
5273 13328 1 0.16500 119244.000000
5274 12616 1 0.16500 119244.000000
5274 14710 1 0.16500 119244.000000
5275 12616 1 0.16500 119244.000000
5275 13965 1 0.16500 119244.000000
5276 12616 1 0.16500 119244.000000
5276 12655 1 0.16500 119244.000000
5277 12617 1 0.16500 119244.000000
5277 13368 1 0.16500 119244.000000
5278 12617 1 0.16500 119244.000000
5278 15950 1 0.16500 119244.000000
5279 12617 1 0.16500 119244.000000
5279 15278 1 0.16500 119244.000000
5280 12617 1 0.16500 119244.000000
5280 14387 1 0.16500 119244.000000
5281 12618 1 0.16500 119244.000000
5281 13912 1 0.16500 119244.000000
5282 12618 1 0.16500 119244.000000
5282 15913 1 0.16500 119244.000000
5283 12618 1 0.16500 119244.000000
5283 12802 1 0.16500 119244.000000
5284 12618 1 0.16500 119244.000000
5284 13942 1 0.16500 119244.000000
5285 12619 1 0.16500 119244.000000
5285 16242 1 0.16500 119244.000000
5286 12619 1 0.16500 119244.000000
5286 15314 1 0.16500 119244.000000
5287 23809 1 0.16500 119244.000000
5287 24118 1 0.16500 119244.000000
5288 19057 1 0.16500 119244.000000
5288 23809 1 0.16500 119244.000000
5289 12620 1 0.16500 119244.000000
5289 15709 1 0.16500 119244.000000
5290 12620 1 0.16500 119244.000000
5290 13045 1 0.16500 119244.000000
5291 12620 1 0.16500 119244.000000
5291 13427 1 0.16500 119244.000000
5292 12621 1 0.16500 119244.000000
5292 13668 1 0.16500 119244.000000
5293 12621 1 0.16500 119244.000000
5293 12934 1 0.16500 119244.000000
5294 12621 1 0.16500 119244.000000
5294 14706 1 0.16500 119244.000000
5295 12622 1 0.16500 119244.000000
5295 14362 1 0.16500 119244.000000
5296 12622 1 0.16500 119244.000000
5296 13352 1 0.16500 119244.000000
5297 12622 1 0.16500 119244.000000
5297 19789 1 0.16500 119244.000000
5298 13237 1 0.16500 119244.000000
5298 17837 1 0.16500 119244.000000
5299 17837 1 0.16500 119244.000000
5299 19609 1 0.16500 119244.000000
5300 11327 1 0.16500 119244.000000
5300 12623 1 0.16500 119244.000000
5301 12623 1 0.16500 119244.000000
5301 15036 1 0.16500 119244.000000
5302 12623 1 0.16500 119244.000000
5302 14600 1 0.16500 119244.000000
5303 12624 1 0.16500 119244.000000
5303 13461 1 0.16500 119244.000000
5304 12624 1 0.16500 119244.000000
5304 13898 1 0.16500 119244.000000
5305 12625 1 0.16500 119244.000000
5305 13948 1 0.16500 119244.000000
5306 12625 1 0.16500 119244.000000
5306 15055 1 0.16500 119244.000000
5307 12625 1 0.16500 119244.000000
5307 23017 1 0.16500 119244.000000
5308 12626 1 0.16500 119244.000000
5308 12636 1 0.16500 119244.000000
5309 12626 1 0.16500 119244.000000
5309 13783 1 0.16500 119244.000000
5310 12626 1 0.16500 119244.000000
5310 13762 1 0.16500 119244.000000
5311 12626 1 0.16500 119244.000000
5311 13574 1 0.16500 119244.000000
5312 12627 1 0.16500 119244.000000
5312 13007 1 0.16500 119244.000000
5313 12628 1 0.16500 119244.000000
5313 13606 1 0.16500 119244.000000
5314 12628 1 0.16500 119244.000000
5314 13877 1 0.16500 119244.000000
5315 12628 1 0.16500 119244.000000
5315 13967 1 0.16500 119244.000000
5316 12628 1 0.16500 119244.000000
5316 15807 1 0.16500 119244.000000
5317 12629 1 0.16500 119244.000000
5317 12748 1 0.16500 119244.000000
5318 12629 1 0.16500 119244.000000
5318 12669 1 0.16500 119244.000000
5319 12629 1 0.16500 119244.000000
5319 13076 1 0.16500 119244.000000
5320 12629 1 0.16500 119244.000000
5320 15429 1 0.16500 119244.000000
5321 12630 1 0.16500 119244.000000
5321 14546 1 0.16500 119244.000000
5322 12630 1 0.16500 119244.000000
5322 22801 1 0.16500 119244.000000
5323 12630 1 0.16500 119244.000000
5323 13974 1 0.16500 119244.000000
5324 16049 1 0.16500 119244.000000
5324 23812 1 0.16500 119244.000000
5325 21973 1 0.16500 119244.000000
5325 23812 1 0.16500 119244.000000
5326 12631 1 0.16500 119244.000000
5326 14033 1 0.16500 119244.000000
5327 12631 1 0.16500 119244.000000
5327 14989 1 0.16500 119244.000000
5328 12631 1 0.16500 119244.000000
5328 13483 1 0.16500 119244.000000
5329 12632 1 0.16500 119244.000000
5329 14094 1 0.16500 119244.000000
5330 12633 1 0.16500 119244.000000
5330 13638 1 0.16500 119244.000000
5331 12633 1 0.16500 119244.000000
5331 14341 1 0.16500 119244.000000
5332 12633 1 0.16500 119244.000000
5332 16052 1 0.16500 119244.000000
5333 12634 1 0.16500 119244.000000
5333 24124 1 0.16500 119244.000000
5334 12634 1 0.16500 119244.000000
5334 14911 1 0.16500 119244.000000
5335 13546 1 0.16500 119244.000000
5335 15217 1 0.16500 119244.000000
5336 12635 1 0.16500 119244.000000
5336 13790 1 0.16500 119244.000000
5337 13790 1 0.16500 119244.000000
5337 15217 1 0.16500 119244.000000
5338 13963 1 0.16500 119244.000000
5338 15217 1 0.16500 119244.000000
5339 12636 1 0.16500 119244.000000
5339 15778 1 0.16500 119244.000000
5340 12636 1 0.16500 119244.000000
5340 12963 1 0.16500 119244.000000
5341 12636 1 0.16500 119244.000000
5341 15231 1 0.16500 119244.000000
5342 12637 1 0.16500 119244.000000
5342 15356 1 0.16500 119244.000000
5343 12637 1 0.16500 119244.000000
5343 15378 1 0.16500 119244.000000
5344 14065 1 0.16500 119244.000000
5344 18745 1 0.16500 119244.000000
5345 12638 1 0.16500 119244.000000
5345 13347 1 0.16500 119244.000000
5346 12638 1 0.16500 119244.000000
5346 12797 1 0.16500 119244.000000
5347 12638 1 0.16500 119244.000000
5347 14669 1 0.16500 119244.000000
5348 12639 1 0.16500 119244.000000
5348 21169 1 0.16500 119244.000000
5349 12639 1 0.16500 119244.000000
5349 15522 1 0.16500 119244.000000
5350 12639 1 0.16500 119244.000000
5350 13418 1 0.16500 119244.000000
5351 13110 1 0.16500 119244.000000
5351 20845 1 0.16500 119244.000000
5352 18721 1 0.16500 119244.000000
5352 23815 1 0.16500 119244.000000
5353 15641 1 0.16500 119244.000000
5353 23818 1 0.16500 119244.000000
5354 12640 1 0.16500 119244.000000
5354 15003 1 0.16500 119244.000000
5355 12640 1 0.16500 119244.000000
5355 13261 1 0.16500 119244.000000
5356 19489 1 0.16500 119244.000000
5356 24372 1 0.16500 119244.000000
5357 12641 1 0.16500 119244.000000
5357 12687 1 0.16500 119244.000000
5358 12641 1 0.16500 119244.000000
5358 16184 1 0.16500 119244.000000
5359 11700 1 0.16500 119244.000000
5359 12641 1 0.16500 119244.000000
5360 12641 1 0.16500 119244.000000
5360 13600 1 0.16500 119244.000000
5361 12642 1 0.16500 119244.000000
5361 16423 1 0.16500 119244.000000
5362 12642 1 0.16500 119244.000000
5362 15697 1 0.16500 119244.000000
5363 12642 1 0.16500 119244.000000
5363 14033 1 0.16500 119244.000000
5364 12643 1 0.16500 119244.000000
5364 15077 1 0.16500 119244.000000
5365 12643 1 0.16500 119244.000000
5365 15419 1 0.16500 119244.000000
5366 12644 1 0.16500 119244.000000
5366 15741 1 0.16500 119244.000000
5367 12644 1 0.16500 119244.000000
5367 13431 1 0.16500 119244.000000
5368 12644 1 0.16500 119244.000000
5368 15423 1 0.16500 119244.000000
5369 12645 1 0.16500 119244.000000
5369 13580 1 0.16500 119244.000000
5370 12645 1 0.16500 119244.000000
5370 12659 1 0.16500 119244.000000
5371 12645 1 0.16500 119244.000000
5371 15264 1 0.16500 119244.000000
5372 12646 1 0.16500 119244.000000
5372 14418 1 0.16500 119244.000000
5373 15626 1 0.16500 119244.000000
5373 17053 1 0.16500 119244.000000
5374 17053 1 0.16500 119244.000000
5374 20137 1 0.16500 119244.000000
5375 13236 1 0.16500 119244.000000
5375 14153 1 0.16500 119244.000000
5376 13236 1 0.16500 119244.000000
5376 15913 1 0.16500 119244.000000
5377 12647 1 0.16500 119244.000000
5377 15264 1 0.16500 119244.000000
5378 12647 1 0.16500 119244.000000
5378 14972 1 0.16500 119244.000000
5379 12648 1 0.16500 119244.000000
5379 15390 1 0.16500 119244.000000
5380 11989 1 0.16500 119244.000000
5380 12648 1 0.16500 119244.000000
5381 12649 1 0.16500 119244.000000
5381 15575 1 0.16500 119244.000000
5382 12650 1 0.16500 119244.000000
5382 14033 1 0.16500 119244.000000
5383 12650 1 0.16500 119244.000000
5383 13525 1 0.16500 119244.000000
5384 12650 1 0.16500 119244.000000
5384 12762 1 0.16500 119244.000000
5385 12651 1 0.16500 119244.000000
5385 15654 1 0.16500 119244.000000
5386 12651 1 0.16500 119244.000000
5386 13190 1 0.16500 119244.000000
5387 12651 1 0.16500 119244.000000
5387 13549 1 0.16500 119244.000000
5388 12652 1 0.16500 119244.000000
5388 13752 1 0.16500 119244.000000
5389 12652 1 0.16500 119244.000000
5389 13303 1 0.16500 119244.000000
5390 12652 1 0.16500 119244.000000
5390 13092 1 0.16500 119244.000000
5391 15019 1 0.16500 119244.000000
5391 18817 1 0.16500 119244.000000
5392 18817 1 0.16500 119244.000000
5392 24112 1 0.16500 119244.000000
5393 12131 1 0.16500 119244.000000
5393 23125 1 0.16500 119244.000000
5394 15652 1 0.16500 119244.000000
5394 23125 1 0.16500 119244.000000
5395 12653 1 0.16500 119244.000000
5395 12823 1 0.16500 119244.000000
5396 12653 1 0.16500 119244.000000
5396 12745 1 0.16500 119244.000000
5397 12653 1 0.16500 119244.000000
5397 13063 1 0.16500 119244.000000
5398 12653 1 0.16500 119244.000000
5398 14337 1 0.16500 119244.000000
5399 12654 1 0.16500 119244.000000
5399 16152 1 0.16500 119244.000000
5400 12654 1 0.16500 119244.000000
5400 16075 1 0.16500 119244.000000
5401 12654 1 0.16500 119244.000000
5401 13048 1 0.16500 119244.000000
5402 12654 1 0.16500 119244.000000
5402 13614 1 0.16500 119244.000000
5403 12655 1 0.16500 119244.000000
5403 13369 1 0.16500 119244.000000
5404 12655 1 0.16500 119244.000000
5404 12675 1 0.16500 119244.000000
5405 12655 1 0.16500 119244.000000
5405 14898 1 0.16500 119244.000000
5406 12656 1 0.16500 119244.000000
5406 13691 1 0.16500 119244.000000
5407 12656 1 0.16500 119244.000000
5407 13126 1 0.16500 119244.000000
5408 12656 1 0.16500 119244.000000
5408 13137 1 0.16500 119244.000000
5409 12657 1 0.16500 119244.000000
5409 15483 1 0.16500 119244.000000
5410 11808 1 0.16500 119244.000000
5410 12657 1 0.16500 119244.000000
5411 12658 1 0.16500 119244.000000
5411 15505 1 0.16500 119244.000000
5412 12658 1 0.16500 119244.000000
5412 14935 1 0.16500 119244.000000
5413 15832 1 0.16500 119244.000000
5413 20893 1 0.16500 119244.000000
5414 20893 1 0.16500 119244.000000
5414 24037 1 0.16500 119244.000000
5415 23821 1 0.16500 119244.000000
5415 24298 1 0.16500 119244.000000
5416 13533 1 0.16500 119244.000000
5416 23821 1 0.16500 119244.000000
5417 12659 1 0.16500 119244.000000
5417 15958 1 0.16500 119244.000000
5418 12659 1 0.16500 119244.000000
5418 16161 1 0.16500 119244.000000
5419 12647 1 0.16500 119244.000000
5419 12659 1 0.16500 119244.000000
5420 12660 1 0.16500 119244.000000
5420 14850 1 0.16500 119244.000000
5421 12660 1 0.16500 119244.000000
5421 13884 1 0.16500 119244.000000
5422 12660 1 0.16500 119244.000000
5422 13178 1 0.16500 119244.000000
5423 12660 1 0.16500 119244.000000
5423 16044 1 0.16500 119244.000000
5424 12661 1 0.16500 119244.000000
5424 13053 1 0.16500 119244.000000
5425 12661 1 0.16500 119244.000000
5425 14668 1 0.16500 119244.000000
5426 12661 1 0.16500 119244.000000
5426 15214 1 0.16500 119244.000000
5427 20653 1 0.16500 119244.000000
5427 22981 1 0.16500 119244.000000
5428 22981 1 0.16500 119244.000000
5428 23197 1 0.16500 119244.000000
5429 12662 1 0.16500 119244.000000
5429 13459 1 0.16500 119244.000000
5430 12662 1 0.16500 119244.000000
5430 14590 1 0.16500 119244.000000
5431 12663 1 0.16500 119244.000000
5431 13150 1 0.16500 119244.000000
5432 12663 1 0.16500 119244.000000
5432 14245 1 0.16500 119244.000000
5433 12663 1 0.16500 119244.000000
5433 13164 1 0.16500 119244.000000
5434 12664 1 0.16500 119244.000000
5434 14133 1 0.16500 119244.000000
5435 12664 1 0.16500 119244.000000
5435 16123 1 0.16500 119244.000000
5436 12664 1 0.16500 119244.000000
5436 16262 1 0.16500 119244.000000
5437 12665 1 0.16500 119244.000000
5437 24073 1 0.16500 119244.000000
5438 12665 1 0.16500 119244.000000
5438 14128 1 0.16500 119244.000000
5439 12665 1 0.16500 119244.000000
5439 12693 1 0.16500 119244.000000
5440 20581 1 0.16500 119244.000000
5440 20821 1 0.16500 119244.000000
5441 12666 1 0.16500 119244.000000
5441 18349 1 0.16500 119244.000000
5442 12666 1 0.16500 119244.000000
5442 24175 1 0.16500 119244.000000
5443 12666 1 0.16500 119244.000000
5443 13212 1 0.16500 119244.000000
5444 12667 1 0.16500 119244.000000
5444 14199 1 0.16500 119244.000000
5445 13851 1 0.16500 119244.000000
5445 16077 1 0.16500 119244.000000
5446 12668 1 0.16500 119244.000000
5446 13851 1 0.16500 119244.000000
5447 12668 1 0.16500 119244.000000
5447 15462 1 0.16500 119244.000000
5448 12669 1 0.16500 119244.000000
5448 24022 1 0.16500 119244.000000
5449 12669 1 0.16500 119244.000000
5449 15826 1 0.16500 119244.000000
5450 11460 1 0.16500 119244.000000
5450 12670 1 0.16500 119244.000000
5451 11659 1 0.16500 119244.000000
5451 14641 1 0.16500 119244.000000
5452 11659 1 0.16500 119244.000000
5452 14652 1 0.16500 119244.000000
5453 12671 1 0.16500 119244.000000
5453 14607 1 0.16500 119244.000000
5454 12671 1 0.16500 119244.000000
5454 15649 1 0.16500 119244.000000
5455 12671 1 0.16500 119244.000000
5455 15333 1 0.16500 119244.000000
5456 12672 1 0.16500 119244.000000
5456 16224 1 0.16500 119244.000000
5457 12672 1 0.16500 119244.000000
5457 15336 1 0.16500 119244.000000
5458 12672 1 0.16500 119244.000000
5458 15007 1 0.16500 119244.000000
5459 12672 1 0.16500 119244.000000
5459 13709 1 0.16500 119244.000000
5460 12673 1 0.16500 119244.000000
5460 23932 1 0.16500 119244.000000
5461 12673 1 0.16500 119244.000000
5461 15136 1 0.16500 119244.000000
5462 12673 1 0.16500 119244.000000
5462 19045 1 0.16500 119244.000000
5463 12673 1 0.16500 119244.000000
5463 20689 1 0.16500 119244.000000
5464 12894 1 0.16500 119244.000000
5464 13049 1 0.16500 119244.000000
5465 12675 1 0.16500 119244.000000
5465 13342 1 0.16500 119244.000000
5466 12675 1 0.16500 119244.000000
5466 12894 1 0.16500 119244.000000
5467 23581 1 0.16500 119244.000000
5467 24148 1 0.16500 119244.000000
5468 21541 1 0.16500 119244.000000
5468 23581 1 0.16500 119244.000000
5469 12821 1 0.16500 119244.000000
5469 23581 1 0.16500 119244.000000
5470 12676 1 0.16500 119244.000000
5470 14268 1 0.16500 119244.000000
5471 12676 1 0.16500 119244.000000
5471 15340 1 0.16500 119244.000000
5472 23824 1 0.16500 119244.000000
5472 24377 1 0.16500 119244.000000
5473 23824 1 0.16500 119244.000000
5473 24223 1 0.16500 119244.000000
5474 12677 1 0.16500 119244.000000
5474 14978 1 0.16500 119244.000000
5475 12677 1 0.16500 119244.000000
5475 13291 1 0.16500 119244.000000
5476 11459 1 0.16500 119244.000000
5476 15693 1 0.16500 119244.000000
5477 12679 1 0.16500 119244.000000
5477 15942 1 0.16500 119244.000000
5478 12679 1 0.16500 119244.000000
5478 14492 1 0.16500 119244.000000
5479 12680 1 0.16500 119244.000000
5479 15598 1 0.16500 119244.000000
5480 12680 1 0.16500 119244.000000
5480 15248 1 0.16500 119244.000000
5481 12680 1 0.16500 119244.000000
5481 16038 1 0.16500 119244.000000
5482 12680 1 0.16500 119244.000000
5482 14146 1 0.16500 119244.000000
5483 12681 1 0.16500 119244.000000
5483 15843 1 0.16500 119244.000000
5484 12681 1 0.16500 119244.000000
5484 13601 1 0.16500 119244.000000
5485 12681 1 0.16500 119244.000000
5485 13181 1 0.16500 119244.000000
5486 13511 1 0.16500 119244.000000
5486 18793 1 0.16500 119244.000000
5487 16257 1 0.16500 119244.000000
5487 18793 1 0.16500 119244.000000
5488 12682 1 0.16500 119244.000000
5488 14332 1 0.16500 119244.000000
5489 12682 1 0.16500 119244.000000
5489 14704 1 0.16500 119244.000000
5490 12682 1 0.16500 119244.000000
5490 13573 1 0.16500 119244.000000
5491 12683 1 0.16500 119244.000000
5491 13990 1 0.16500 119244.000000
5492 12683 1 0.16500 119244.000000
5492 13942 1 0.16500 119244.000000
5493 12683 1 0.16500 119244.000000
5493 15203 1 0.16500 119244.000000
5494 12684 1 0.16500 119244.000000
5494 14269 1 0.16500 119244.000000
5495 12684 1 0.16500 119244.000000
5495 13933 1 0.16500 119244.000000
5496 16082 1 0.16500 119244.000000
5496 20485 1 0.16500 119244.000000
5497 15190 1 0.16500 119244.000000
5497 20485 1 0.16500 119244.000000
5498 20485 1 0.16500 119244.000000
5498 23863 1 0.16500 119244.000000
5499 12685 1 0.16500 119244.000000
5499 14825 1 0.16500 119244.000000
5500 12685 1 0.16500 119244.000000
5500 16066 1 0.16500 119244.000000
5501 22453 1 0.16500 119244.000000
5501 23935 1 0.16500 119244.000000
5502 14496 1 0.16500 119244.000000
5502 22453 1 0.16500 119244.000000
5503 15868 1 0.16500 119244.000000
5503 22453 1 0.16500 119244.000000
5504 12686 1 0.16500 119244.000000
5504 24016 1 0.16500 119244.000000
5505 12686 1 0.16500 119244.000000
5505 15591 1 0.16500 119244.000000
5506 12686 1 0.16500 119244.000000
5506 23836 1 0.16500 119244.000000
5507 12687 1 0.16500 119244.000000
5507 15620 1 0.16500 119244.000000
5508 12687 1 0.16500 119244.000000
5508 14789 1 0.16500 119244.000000
5509 12687 1 0.16500 119244.000000
5509 15332 1 0.16500 119244.000000
5510 12688 1 0.16500 119244.000000
5510 12965 1 0.16500 119244.000000
5511 12688 1 0.16500 119244.000000
5511 14219 1 0.16500 119244.000000
5512 12689 1 0.16500 119244.000000
5512 15895 1 0.16500 119244.000000
5513 12689 1 0.16500 119244.000000
5513 16255 1 0.16500 119244.000000
5514 12689 1 0.16500 119244.000000
5514 14022 1 0.16500 119244.000000
5515 12689 1 0.16500 119244.000000
5515 15096 1 0.16500 119244.000000
5516 15473 1 0.16500 119244.000000
5516 23827 1 0.16500 119244.000000
5517 12690 1 0.16500 119244.000000
5517 16224 1 0.16500 119244.000000
5518 12690 1 0.16500 119244.000000
5518 13502 1 0.16500 119244.000000
5519 12690 1 0.16500 119244.000000
5519 12992 1 0.16500 119244.000000
5520 12691 1 0.16500 119244.000000
5520 15069 1 0.16500 119244.000000
5521 12691 1 0.16500 119244.000000
5521 12744 1 0.16500 119244.000000
5522 12691 1 0.16500 119244.000000
5522 15010 1 0.16500 119244.000000
5523 12692 1 0.16500 119244.000000
5523 14225 1 0.16500 119244.000000
5524 12692 1 0.16500 119244.000000
5524 14185 1 0.16500 119244.000000
5525 12693 1 0.16500 119244.000000
5525 15991 1 0.16500 119244.000000
5526 13862 1 0.16500 119244.000000
5526 23830 1 0.16500 119244.000000
5527 22765 1 0.16500 119244.000000
5527 23830 1 0.16500 119244.000000
5528 12694 1 0.16500 119244.000000
5528 13557 1 0.16500 119244.000000
5529 12694 1 0.16500 119244.000000
5529 14717 1 0.16500 119244.000000
5530 12694 1 0.16500 119244.000000
5530 13205 1 0.16500 119244.000000
5531 12694 1 0.16500 119244.000000
5531 14151 1 0.16500 119244.000000
5532 12695 1 0.16500 119244.000000
5532 12886 1 0.16500 119244.000000
5533 12695 1 0.16500 119244.000000
5533 12950 1 0.16500 119244.000000
5534 12695 1 0.16500 119244.000000
5534 12951 1 0.16500 119244.000000
5535 12696 1 0.16500 119244.000000
5535 13509 1 0.16500 119244.000000
5536 12696 1 0.16500 119244.000000
5536 15902 1 0.16500 119244.000000
5537 12697 1 0.16500 119244.000000
5537 16143 1 0.16500 119244.000000
5538 12697 1 0.16500 119244.000000
5538 13082 1 0.16500 119244.000000
5539 12697 1 0.16500 119244.000000
5539 15184 1 0.16500 119244.000000
5540 16263 1 0.16500 119244.000000
5540 18187 1 0.16500 119244.000000
5541 13841 1 0.16500 119244.000000
5541 18187 1 0.16500 119244.000000
5542 12698 1 0.16500 119244.000000
5542 16507 1 0.16500 119244.000000
5543 12698 1 0.16500 119244.000000
5543 15021 1 0.16500 119244.000000
5544 12699 1 0.16500 119244.000000
5544 15881 1 0.16500 119244.000000
5545 13897 1 0.16500 119244.000000
5545 15618 1 0.16500 119244.000000
5546 12699 1 0.16500 119244.000000
5546 14098 1 0.16500 119244.000000
5547 12699 1 0.16500 119244.000000
5547 15618 1 0.16500 119244.000000
5548 12700 1 0.16500 119244.000000
5548 15704 1 0.16500 119244.000000
5549 12700 1 0.16500 119244.000000
5549 13789 1 0.16500 119244.000000
5550 12057 1 0.16500 119244.000000
5550 15563 1 0.16500 119244.000000
5551 15989 1 0.16500 119244.000000
5551 22069 1 0.16500 119244.000000
5552 13760 1 0.16500 119244.000000
5552 22069 1 0.16500 119244.000000
5553 12701 1 0.16500 119244.000000
5553 15693 1 0.16500 119244.000000
5554 12701 1 0.16500 119244.000000
5554 15065 1 0.16500 119244.000000
5555 12701 1 0.16500 119244.000000
5555 14056 1 0.16500 119244.000000
5556 12701 1 0.16500 119244.000000
5556 12912 1 0.16500 119244.000000
5557 12702 1 0.16500 119244.000000
5557 15050 1 0.16500 119244.000000
5558 12702 1 0.16500 119244.000000
5558 14305 1 0.16500 119244.000000
5559 12702 1 0.16500 119244.000000
5559 14064 1 0.16500 119244.000000
5560 12703 1 0.16500 119244.000000
5560 15976 1 0.16500 119244.000000
5561 12703 1 0.16500 119244.000000
5561 24417 1 0.16500 119244.000000
5562 12704 1 0.16500 119244.000000
5562 14126 1 0.16500 119244.000000
5563 12704 1 0.16500 119244.000000
5563 14516 1 0.16500 119244.000000
5564 12704 1 0.16500 119244.000000
5564 14101 1 0.16500 119244.000000
5565 12705 1 0.16500 119244.000000
5565 15379 1 0.16500 119244.000000
5566 12705 1 0.16500 119244.000000
5566 17543 1 0.16500 119244.000000
5567 12705 1 0.16500 119244.000000
5567 15603 1 0.16500 119244.000000
5568 12706 1 0.16500 119244.000000
5568 13848 1 0.16500 119244.000000
5569 12706 1 0.16500 119244.000000
5569 14271 1 0.16500 119244.000000
5570 12706 1 0.16500 119244.000000
5570 12721 1 0.16500 119244.000000
5571 12707 1 0.16500 119244.000000
5571 13375 1 0.16500 119244.000000
5572 12708 1 0.16500 119244.000000
5572 21253 1 0.16500 119244.000000
5573 12708 1 0.16500 119244.000000
5573 15796 1 0.16500 119244.000000
5574 12709 1 0.16500 119244.000000
5574 15635 1 0.16500 119244.000000
5575 12709 1 0.16500 119244.000000
5575 13469 1 0.16500 119244.000000
5576 12709 1 0.16500 119244.000000
5576 15867 1 0.16500 119244.000000
5577 11910 1 0.16500 119244.000000
5577 15274 1 0.16500 119244.000000
5578 15274 1 0.16500 119244.000000
5578 22681 1 0.16500 119244.000000
5579 13293 1 0.16500 119244.000000
5579 23836 1 0.16500 119244.000000
5580 15874 1 0.16500 119244.000000
5580 24452 1 0.16500 119244.000000
5581 23836 1 0.16500 119244.000000
5581 24452 1 0.16500 119244.000000
5582 12710 1 0.16500 119244.000000
5582 22381 1 0.16500 119244.000000
5583 12710 1 0.16500 119244.000000
5583 15284 1 0.16500 119244.000000
5584 12710 1 0.16500 119244.000000
5584 14148 1 0.16500 119244.000000
5585 12711 1 0.16500 119244.000000
5585 15586 1 0.16500 119244.000000
5586 12711 1 0.16500 119244.000000
5586 13332 1 0.16500 119244.000000
5587 12712 1 0.16500 119244.000000
5587 13856 1 0.16500 119244.000000
5588 12712 1 0.16500 119244.000000
5588 14806 1 0.16500 119244.000000
5589 12712 1 0.16500 119244.000000
5589 13218 1 0.16500 119244.000000
5590 12712 1 0.16500 119244.000000
5590 16225 1 0.16500 119244.000000
5591 12713 1 0.16500 119244.000000
5591 16272 1 0.16500 119244.000000
5592 12713 1 0.16500 119244.000000
5592 19477 1 0.16500 119244.000000
5593 12713 1 0.16500 119244.000000
5593 13573 1 0.16500 119244.000000
5594 12714 1 0.16500 119244.000000
5594 14232 1 0.16500 119244.000000
5595 12714 1 0.16500 119244.000000
5595 12868 1 0.16500 119244.000000
5596 12714 1 0.16500 119244.000000
5596 15268 1 0.16500 119244.000000
5597 12714 1 0.16500 119244.000000
5597 15777 1 0.16500 119244.000000
5598 12715 1 0.16500 119244.000000
5598 15324 1 0.16500 119244.000000
5599 12715 1 0.16500 119244.000000
5599 12787 1 0.16500 119244.000000
5600 12716 1 0.16500 119244.000000
5600 15408 1 0.16500 119244.000000
5601 12716 1 0.16500 119244.000000
5601 13448 1 0.16500 119244.000000
5602 12717 1 0.16500 119244.000000
5602 14081 1 0.16500 119244.000000
5603 12717 1 0.16500 119244.000000
5603 14225 1 0.16500 119244.000000
5604 12717 1 0.16500 119244.000000
5604 13539 1 0.16500 119244.000000
5605 12718 1 0.16500 119244.000000
5605 14124 1 0.16500 119244.000000
5606 12718 1 0.16500 119244.000000
5606 14441 1 0.16500 119244.000000
5607 12718 1 0.16500 119244.000000
5607 13947 1 0.16500 119244.000000
5608 12718 1 0.16500 119244.000000
5608 13282 1 0.16500 119244.000000
5609 12719 1 0.16500 119244.000000
5609 13996 1 0.16500 119244.000000
5610 12719 1 0.16500 119244.000000
5610 14783 1 0.16500 119244.000000
5611 12719 1 0.16500 119244.000000
5611 16233 1 0.16500 119244.000000
5612 12720 1 0.16500 119244.000000
5612 15210 1 0.16500 119244.000000
5613 12720 1 0.16500 119244.000000
5613 15068 1 0.16500 119244.000000
5614 12720 1 0.16500 119244.000000
5614 15911 1 0.16500 119244.000000
5615 12721 1 0.16500 119244.000000
5615 13958 1 0.16500 119244.000000
5616 12721 1 0.16500 119244.000000
5616 15325 1 0.16500 119244.000000
5617 12721 1 0.16500 119244.000000
5617 14782 1 0.16500 119244.000000
5618 12722 1 0.16500 119244.000000
5618 15403 1 0.16500 119244.000000
5619 12722 1 0.16500 119244.000000
5619 14112 1 0.16500 119244.000000
5620 12722 1 0.16500 119244.000000
5620 13868 1 0.16500 119244.000000
5621 12722 1 0.16500 119244.000000
5621 13424 1 0.16500 119244.000000
5622 12723 1 0.16500 119244.000000
5622 14878 1 0.16500 119244.000000
5623 12723 1 0.16500 119244.000000
5623 16144 1 0.16500 119244.000000
5624 12723 1 0.16500 119244.000000
5624 14043 1 0.16500 119244.000000
5625 12723 1 0.16500 119244.000000
5625 14112 1 0.16500 119244.000000
5626 12724 1 0.16500 119244.000000
5626 15930 1 0.16500 119244.000000
5627 12725 1 0.16500 119244.000000
5627 18457 1 0.16500 119244.000000
5628 12725 1 0.16500 119244.000000
5628 14317 1 0.16500 119244.000000
5629 12726 1 0.16500 119244.000000
5629 13985 1 0.16500 119244.000000
5630 13536 1 0.16500 119244.000000
5630 23839 1 0.16500 119244.000000
5631 12727 1 0.16500 119244.000000
5631 13952 1 0.16500 119244.000000
5632 14953 1 0.16500 119244.000000
5632 15742 1 0.16500 119244.000000
5633 12727 1 0.16500 119244.000000
5633 15742 1 0.16500 119244.000000
5634 12727 1 0.16500 119244.000000
5634 13249 1 0.16500 119244.000000
5635 12728 1 0.16500 119244.000000
5635 15803 1 0.16500 119244.000000
5636 12728 1 0.16500 119244.000000
5636 15711 1 0.16500 119244.000000
5637 12728 1 0.16500 119244.000000
5637 12795 1 0.16500 119244.000000
5638 12728 1 0.16500 119244.000000
5638 13389 1 0.16500 119244.000000
5639 12729 1 0.16500 119244.000000
5639 15004 1 0.16500 119244.000000
5640 12729 1 0.16500 119244.000000
5640 13058 1 0.16500 119244.000000
5641 12729 1 0.16500 119244.000000
5641 15216 1 0.16500 119244.000000
5642 12730 1 0.16500 119244.000000
5642 14507 1 0.16500 119244.000000
5643 12730 1 0.16500 119244.000000
5643 15994 1 0.16500 119244.000000
5644 12730 1 0.16500 119244.000000
5644 13440 1 0.16500 119244.000000
5645 12730 1 0.16500 119244.000000
5645 14384 1 0.16500 119244.000000
5646 12731 1 0.16500 119244.000000
5646 13417 1 0.16500 119244.000000
5647 12731 1 0.16500 119244.000000
5647 15123 1 0.16500 119244.000000
5648 12731 1 0.16500 119244.000000
5648 14441 1 0.16500 119244.000000
5649 12732 1 0.16500 119244.000000
5649 16173 1 0.16500 119244.000000
5650 12732 1 0.16500 119244.000000
5650 13931 1 0.16500 119244.000000
5651 12732 1 0.16500 119244.000000
5651 14891 1 0.16500 119244.000000
5652 12732 1 0.16500 119244.000000
5652 16196 1 0.16500 119244.000000
5653 13738 1 0.16500 119244.000000
5653 14615 1 0.16500 119244.000000
5654 12733 1 0.16500 119244.000000
5654 13738 1 0.16500 119244.000000
5655 12733 1 0.16500 119244.000000
5655 14123 1 0.16500 119244.000000
5656 12734 1 0.16500 119244.000000
5656 13442 1 0.16500 119244.000000
5657 12734 1 0.16500 119244.000000
5657 13649 1 0.16500 119244.000000
5658 12734 1 0.16500 119244.000000
5658 15071 1 0.16500 119244.000000
5659 12734 1 0.16500 119244.000000
5659 15593 1 0.16500 119244.000000
5660 15445 1 0.16500 119244.000000
5660 23719 1 0.16500 119244.000000
5661 12735 1 0.16500 119244.000000
5661 12968 1 0.16500 119244.000000
5662 12735 1 0.16500 119244.000000
5662 15237 1 0.16500 119244.000000
5663 12735 1 0.16500 119244.000000
5663 13804 1 0.16500 119244.000000
5664 12736 1 0.16500 119244.000000
5664 13645 1 0.16500 119244.000000
5665 12736 1 0.16500 119244.000000
5665 12890 1 0.16500 119244.000000
5666 12736 1 0.16500 119244.000000
5666 23905 1 0.16500 119244.000000
5667 12737 1 0.16500 119244.000000
5667 14626 1 0.16500 119244.000000
5668 12737 1 0.16500 119244.000000
5668 16143 1 0.16500 119244.000000
5669 12737 1 0.16500 119244.000000
5669 14175 1 0.16500 119244.000000
5670 12738 1 0.16500 119244.000000
5670 13958 1 0.16500 119244.000000
5671 12738 1 0.16500 119244.000000
5671 19621 1 0.16500 119244.000000
5672 12738 1 0.16500 119244.000000
5672 12896 1 0.16500 119244.000000
5673 12738 1 0.16500 119244.000000
5673 24211 1 0.16500 119244.000000
5674 12739 1 0.16500 119244.000000
5674 13952 1 0.16500 119244.000000
5675 12739 1 0.16500 119244.000000
5675 12946 1 0.16500 119244.000000
5676 12739 1 0.16500 119244.000000
5676 13262 1 0.16500 119244.000000
5677 12739 1 0.16500 119244.000000
5677 12773 1 0.16500 119244.000000
5678 12740 1 0.16500 119244.000000
5678 15046 1 0.16500 119244.000000
5679 12740 1 0.16500 119244.000000
5679 13442 1 0.16500 119244.000000
5680 12740 1 0.16500 119244.000000
5680 15870 1 0.16500 119244.000000
5681 12741 1 0.16500 119244.000000
5681 16094 1 0.16500 119244.000000
5682 12741 1 0.16500 119244.000000
5682 14287 1 0.16500 119244.000000
5683 12742 1 0.16500 119244.000000
5683 14518 1 0.16500 119244.000000
5684 12742 1 0.16500 119244.000000
5684 14159 1 0.16500 119244.000000
5685 12742 1 0.16500 119244.000000
5685 15233 1 0.16500 119244.000000
5686 12743 1 0.16500 119244.000000
5686 15479 1 0.16500 119244.000000
5687 12743 1 0.16500 119244.000000
5687 14177 1 0.16500 119244.000000
5688 12743 1 0.16500 119244.000000
5688 13758 1 0.16500 119244.000000
5689 12744 1 0.16500 119244.000000
5689 14243 1 0.16500 119244.000000
5690 12744 1 0.16500 119244.000000
5690 14552 1 0.16500 119244.000000
5691 12745 1 0.16500 119244.000000
5691 15912 1 0.16500 119244.000000
5692 12745 1 0.16500 119244.000000
5692 13611 1 0.16500 119244.000000
5693 12745 1 0.16500 119244.000000
5693 14607 1 0.16500 119244.000000
5694 11707 1 0.16500 119244.000000
5694 13086 1 0.16500 119244.000000
5695 13086 1 0.16500 119244.000000
5695 15753 1 0.16500 119244.000000
5696 12747 1 0.16500 119244.000000
5696 14973 1 0.16500 119244.000000
5697 12747 1 0.16500 119244.000000
5697 14969 1 0.16500 119244.000000
5698 12747 1 0.16500 119244.000000
5698 15514 1 0.16500 119244.000000
5699 12747 1 0.16500 119244.000000
5699 15750 1 0.16500 119244.000000
5700 12748 1 0.16500 119244.000000
5700 12964 1 0.16500 119244.000000
5701 12748 1 0.16500 119244.000000
5701 15906 1 0.16500 119244.000000
5702 12748 1 0.16500 119244.000000
5702 15785 1 0.16500 119244.000000
5703 12749 1 0.16500 119244.000000
5703 14927 1 0.16500 119244.000000
5704 12749 1 0.16500 119244.000000
5704 13004 1 0.16500 119244.000000
5705 12749 1 0.16500 119244.000000
5705 15567 1 0.16500 119244.000000
5706 12793 1 0.16500 119244.000000
5706 13687 1 0.16500 119244.000000
5707 12750 1 0.16500 119244.000000
5707 14480 1 0.16500 119244.000000
5708 12750 1 0.16500 119244.000000
5708 12793 1 0.16500 119244.000000
5709 12751 1 0.16500 119244.000000
5709 17025 1 0.16500 119244.000000
5710 12751 1 0.16500 119244.000000
5710 13191 1 0.16500 119244.000000
5711 12752 1 0.16500 119244.000000
5711 13455 1 0.16500 119244.000000
5712 12752 1 0.16500 119244.000000
5712 13473 1 0.16500 119244.000000
5713 14147 1 0.16500 119244.000000
5713 22369 1 0.16500 119244.000000
5714 22369 1 0.16500 119244.000000
5714 23893 1 0.16500 119244.000000
5715 14262 1 0.16500 119244.000000
5715 21457 1 0.16500 119244.000000
5716 13161 1 0.16500 119244.000000
5716 21457 1 0.16500 119244.000000
5717 21457 1 0.16500 119244.000000
5717 23962 1 0.16500 119244.000000
5718 12753 1 0.16500 119244.000000
5718 14646 1 0.16500 119244.000000
5719 12753 1 0.16500 119244.000000
5719 13680 1 0.16500 119244.000000
5720 12753 1 0.16500 119244.000000
5720 15954 1 0.16500 119244.000000
5721 12753 1 0.16500 119244.000000
5721 15974 1 0.16500 119244.000000
5722 12754 1 0.16500 119244.000000
5722 14534 1 0.16500 119244.000000
5723 12754 1 0.16500 119244.000000
5723 14370 1 0.16500 119244.000000
5724 12754 1 0.16500 119244.000000
5724 15184 1 0.16500 119244.000000
5725 15741 1 0.16500 119244.000000
5725 18733 1 0.16500 119244.000000
5726 13714 1 0.16500 119244.000000
5726 18733 1 0.16500 119244.000000
5727 18733 1 0.16500 119244.000000
5727 20761 1 0.16500 119244.000000
5728 12755 1 0.16500 119244.000000
5728 14452 1 0.16500 119244.000000
5729 12755 1 0.16500 119244.000000
5729 13801 1 0.16500 119244.000000
5730 12755 1 0.16500 119244.000000
5730 14795 1 0.16500 119244.000000
5731 12756 1 0.16500 119244.000000
5731 14825 1 0.16500 119244.000000
5732 12756 1 0.16500 119244.000000
5732 14005 1 0.16500 119244.000000
5733 12757 1 0.16500 119244.000000
5733 13039 1 0.16500 119244.000000
5734 12757 1 0.16500 119244.000000
5734 13088 1 0.16500 119244.000000
5735 12758 1 0.16500 119244.000000
5735 20305 1 0.16500 119244.000000
5736 12758 1 0.16500 119244.000000
5736 19597 1 0.16500 119244.000000
5737 15896 1 0.16500 119244.000000
5737 23842 1 0.16500 119244.000000
5738 12759 1 0.16500 119244.000000
5738 15507 1 0.16500 119244.000000
5739 12759 1 0.16500 119244.000000
5739 13152 1 0.16500 119244.000000
5740 12759 1 0.16500 119244.000000
5740 15301 1 0.16500 119244.000000
5741 12759 1 0.16500 119244.000000
5741 14655 1 0.16500 119244.000000
5742 12760 1 0.16500 119244.000000
5742 15813 1 0.16500 119244.000000
5743 12760 1 0.16500 119244.000000
5743 12827 1 0.16500 119244.000000
5744 14729 1 0.16500 119244.000000
5744 15813 1 0.16500 119244.000000
5745 12590 1 0.16500 119244.000000
5745 12761 1 0.16500 119244.000000
5746 12761 1 0.16500 119244.000000
5746 14010 1 0.16500 119244.000000
5747 12762 1 0.16500 119244.000000
5747 14986 1 0.16500 119244.000000
5748 12762 1 0.16500 119244.000000
5748 14171 1 0.16500 119244.000000
5749 12763 1 0.16500 119244.000000
5749 14345 1 0.16500 119244.000000
5750 12763 1 0.16500 119244.000000
5750 13754 1 0.16500 119244.000000
5751 13766 1 0.16500 119244.000000
5751 19345 1 0.16500 119244.000000
5752 13840 1 0.16500 119244.000000
5752 19345 1 0.16500 119244.000000
5753 12764 1 0.16500 119244.000000
5753 13372 1 0.16500 119244.000000
5754 12764 1 0.16500 119244.000000
5754 13020 1 0.16500 119244.000000
5755 12764 1 0.16500 119244.000000
5755 15761 1 0.16500 119244.000000
5756 12765 1 0.16500 119244.000000
5756 14295 1 0.16500 119244.000000
5757 12765 1 0.16500 119244.000000
5757 14186 1 0.16500 119244.000000
5758 12765 1 0.16500 119244.000000
5758 13835 1 0.16500 119244.000000
5759 12766 1 0.16500 119244.000000
5759 14469 1 0.16500 119244.000000
5760 14469 1 0.16500 119244.000000
5760 16116 1 0.16500 119244.000000
5761 12767 1 0.16500 119244.000000
5761 14696 1 0.16500 119244.000000
5762 12767 1 0.16500 119244.000000
5762 22549 1 0.16500 119244.000000
5763 12767 1 0.16500 119244.000000
5763 20905 1 0.16500 119244.000000
5764 14398 1 0.16500 119244.000000
5764 14696 1 0.16500 119244.000000
5765 12768 1 0.16500 119244.000000
5765 13092 1 0.16500 119244.000000
5766 12768 1 0.16500 119244.000000
5766 15702 1 0.16500 119244.000000
5767 12769 1 0.16500 119244.000000
5767 15424 1 0.16500 119244.000000
5768 12769 1 0.16500 119244.000000
5768 14211 1 0.16500 119244.000000
5769 12769 1 0.16500 119244.000000
5769 15183 1 0.16500 119244.000000
5770 12769 1 0.16500 119244.000000
5770 13754 1 0.16500 119244.000000
5771 12770 1 0.16500 119244.000000
5771 14580 1 0.16500 119244.000000
5772 12771 1 0.16500 119244.000000
5772 15626 1 0.16500 119244.000000
5773 12771 1 0.16500 119244.000000
5773 14900 1 0.16500 119244.000000
5774 13511 1 0.16500 119244.000000
5774 23077 1 0.16500 119244.000000
5775 13403 1 0.16500 119244.000000
5775 23077 1 0.16500 119244.000000
5776 16087 1 0.16500 119244.000000
5776 23077 1 0.16500 119244.000000
5777 12772 1 0.16500 119244.000000
5777 12790 1 0.16500 119244.000000
5778 12772 1 0.16500 119244.000000
5778 13286 1 0.16500 119244.000000
5779 12772 1 0.16500 119244.000000
5779 14640 1 0.16500 119244.000000
5780 12773 1 0.16500 119244.000000
5780 13519 1 0.16500 119244.000000
5781 12773 1 0.16500 119244.000000
5781 13891 1 0.16500 119244.000000
5782 12773 1 0.16500 119244.000000
5782 13393 1 0.16500 119244.000000
5783 12774 1 0.16500 119244.000000
5783 14722 1 0.16500 119244.000000
5784 12774 1 0.16500 119244.000000
5784 13009 1 0.16500 119244.000000
5785 12774 1 0.16500 119244.000000
5785 14854 1 0.16500 119244.000000
5786 12775 1 0.16500 119244.000000
5786 21481 1 0.16500 119244.000000
5787 12776 1 0.16500 119244.000000
5787 13416 1 0.16500 119244.000000
5788 12776 1 0.16500 119244.000000
5788 15280 1 0.16500 119244.000000
5789 12776 1 0.16500 119244.000000
5789 13771 1 0.16500 119244.000000
5790 12776 1 0.16500 119244.000000
5790 15835 1 0.16500 119244.000000
5791 15024 1 0.16500 119244.000000
5791 15271 1 0.16500 119244.000000
5792 12777 1 0.16500 119244.000000
5792 15024 1 0.16500 119244.000000
5793 12777 1 0.16500 119244.000000
5793 14790 1 0.16500 119244.000000
5794 13089 1 0.16500 119244.000000
5794 13728 1 0.16500 119244.000000
5795 12778 1 0.16500 119244.000000
5795 14093 1 0.16500 119244.000000
5796 12778 1 0.16500 119244.000000
5796 13874 1 0.16500 119244.000000
5797 12778 1 0.16500 119244.000000
5797 13728 1 0.16500 119244.000000
5798 12779 1 0.16500 119244.000000
5798 13461 1 0.16500 119244.000000
5799 11327 1 0.16500 119244.000000
5799 12779 1 0.16500 119244.000000
5800 12779 1 0.16500 119244.000000
5800 14044 1 0.16500 119244.000000
5801 12779 1 0.16500 119244.000000
5801 13669 1 0.16500 119244.000000
5802 12780 1 0.16500 119244.000000
5802 13177 1 0.16500 119244.000000
5803 12781 1 0.16500 119244.000000
5803 15128 1 0.16500 119244.000000
5804 12781 1 0.16500 119244.000000
5804 15035 1 0.16500 119244.000000
5805 12781 1 0.16500 119244.000000
5805 15803 1 0.16500 119244.000000
5806 12782 1 0.16500 119244.000000
5806 15280 1 0.16500 119244.000000
5807 12782 1 0.16500 119244.000000
5807 15015 1 0.16500 119244.000000
5808 12782 1 0.16500 119244.000000
5808 14659 1 0.16500 119244.000000
5809 12782 1 0.16500 119244.000000
5809 15216 1 0.16500 119244.000000
5810 12783 1 0.16500 119244.000000
5810 15391 1 0.16500 119244.000000
5811 12783 1 0.16500 119244.000000
5811 14686 1 0.16500 119244.000000
5812 12784 1 0.16500 119244.000000
5812 12932 1 0.16500 119244.000000
5813 12784 1 0.16500 119244.000000
5813 13967 1 0.16500 119244.000000
5814 12784 1 0.16500 119244.000000
5814 12839 1 0.16500 119244.000000
5815 12785 1 0.16500 119244.000000
5815 16116 1 0.16500 119244.000000
5816 12785 1 0.16500 119244.000000
5816 15670 1 0.16500 119244.000000
5817 12785 1 0.16500 119244.000000
5817 13344 1 0.16500 119244.000000
5818 12786 1 0.16500 119244.000000
5818 15806 1 0.16500 119244.000000
5819 12786 1 0.16500 119244.000000
5819 16050 1 0.16500 119244.000000
5820 12715 1 0.16500 119244.000000
5820 13571 1 0.16500 119244.000000
5821 12787 1 0.16500 119244.000000
5821 13958 1 0.16500 119244.000000
5822 12788 1 0.16500 119244.000000
5822 14309 1 0.16500 119244.000000
5823 12788 1 0.16500 119244.000000
5823 15973 1 0.16500 119244.000000
5824 13121 1 0.16500 119244.000000
5824 15066 1 0.16500 119244.000000
5825 12789 1 0.16500 119244.000000
5825 15066 1 0.16500 119244.000000
5826 12789 1 0.16500 119244.000000
5826 15035 1 0.16500 119244.000000
5827 12789 1 0.16500 119244.000000
5827 13743 1 0.16500 119244.000000
5828 14023 1 0.16500 119244.000000
5828 14070 1 0.16500 119244.000000
5829 14070 1 0.16500 119244.000000
5829 23845 1 0.16500 119244.000000
5830 13019 1 0.16500 119244.000000
5830 23848 1 0.16500 119244.000000
5831 12790 1 0.16500 119244.000000
5831 14903 1 0.16500 119244.000000
5832 12791 1 0.16500 119244.000000
5832 15022 1 0.16500 119244.000000
5833 12791 1 0.16500 119244.000000
5833 21661 1 0.16500 119244.000000
5834 12791 1 0.16500 119244.000000
5834 17809 1 0.16500 119244.000000
5835 12792 1 0.16500 119244.000000
5835 13870 1 0.16500 119244.000000
5836 12792 1 0.16500 119244.000000
5836 14439 1 0.16500 119244.000000
5837 14194 1 0.16500 119244.000000
5837 14439 1 0.16500 119244.000000
5838 14077 1 0.16500 119244.000000
5838 14439 1 0.16500 119244.000000
5839 16069 1 0.16500 119244.000000
5839 21709 1 0.16500 119244.000000
5840 14511 1 0.16500 119244.000000
5840 16069 1 0.16500 119244.000000
5841 16069 1 0.16500 119244.000000
5841 19153 1 0.16500 119244.000000
5842 15936 1 0.16500 119244.000000
5842 16069 1 0.16500 119244.000000
5843 12793 1 0.16500 119244.000000
5843 24103 1 0.16500 119244.000000
5844 12750 1 0.16500 119244.000000
5844 16105 1 0.16500 119244.000000
5845 12794 1 0.16500 119244.000000
5845 17361 1 0.16500 119244.000000
5846 12794 1 0.16500 119244.000000
5846 17179 1 0.16500 119244.000000
5847 12795 1 0.16500 119244.000000
5847 13641 1 0.16500 119244.000000
5848 12795 1 0.16500 119244.000000
5848 22201 1 0.16500 119244.000000
5849 12795 1 0.16500 119244.000000
5849 14678 1 0.16500 119244.000000
5850 12796 1 0.16500 119244.000000
5850 15690 1 0.16500 119244.000000
5851 12796 1 0.16500 119244.000000
5851 14035 1 0.16500 119244.000000
5852 12796 1 0.16500 119244.000000
5852 14699 1 0.16500 119244.000000
5853 12797 1 0.16500 119244.000000
5853 15877 1 0.16500 119244.000000
5854 12798 1 0.16500 119244.000000
5854 13702 1 0.16500 119244.000000
5855 12798 1 0.16500 119244.000000
5855 13705 1 0.16500 119244.000000
5856 12798 1 0.16500 119244.000000
5856 24160 1 0.16500 119244.000000
5857 12798 1 0.16500 119244.000000
5857 15459 1 0.16500 119244.000000
5858 12538 1 0.16500 119244.000000
5858 12799 1 0.16500 119244.000000
5859 12799 1 0.16500 119244.000000
5859 13229 1 0.16500 119244.000000
5860 15311 1 0.16500 119244.000000
5860 22513 1 0.16500 119244.000000
5861 14912 1 0.16500 119244.000000
5861 15311 1 0.16500 119244.000000
5862 12800 1 0.16500 119244.000000
5862 15605 1 0.16500 119244.000000
5863 14048 1 0.16500 119244.000000
5863 14852 1 0.16500 119244.000000
5864 12800 1 0.16500 119244.000000
5864 14852 1 0.16500 119244.000000
5865 12801 1 0.16500 119244.000000
5865 15113 1 0.16500 119244.000000
5866 12801 1 0.16500 119244.000000
5866 19897 1 0.16500 119244.000000
5867 12801 1 0.16500 119244.000000
5867 15773 1 0.16500 119244.000000
5868 12802 1 0.16500 119244.000000
5868 14297 1 0.16500 119244.000000
5869 12802 1 0.16500 119244.000000
5869 16044 1 0.16500 119244.000000
5870 12803 1 0.16500 119244.000000
5870 14965 1 0.16500 119244.000000
5871 12803 1 0.16500 119244.000000
5871 13536 1 0.16500 119244.000000
5872 12803 1 0.16500 119244.000000
5872 15469 1 0.16500 119244.000000
5873 12804 1 0.16500 119244.000000
5873 12936 1 0.16500 119244.000000
5874 12804 1 0.16500 119244.000000
5874 14940 1 0.16500 119244.000000
5875 12804 1 0.16500 119244.000000
5875 13390 1 0.16500 119244.000000
5876 12805 1 0.16500 119244.000000
5876 13227 1 0.16500 119244.000000
5877 12805 1 0.16500 119244.000000
5877 13659 1 0.16500 119244.000000
5878 12805 1 0.16500 119244.000000
5878 13164 1 0.16500 119244.000000
5879 11478 1 0.16500 119244.000000
5879 12805 1 0.16500 119244.000000
5880 12806 1 0.16500 119244.000000
5880 13621 1 0.16500 119244.000000
5881 12806 1 0.16500 119244.000000
5881 13507 1 0.16500 119244.000000
5882 12806 1 0.16500 119244.000000
5882 13593 1 0.16500 119244.000000
5883 12806 1 0.16500 119244.000000
5883 15232 1 0.16500 119244.000000
5884 12807 1 0.16500 119244.000000
5884 14747 1 0.16500 119244.000000
5885 12807 1 0.16500 119244.000000
5885 13259 1 0.16500 119244.000000
5886 12807 1 0.16500 119244.000000
5886 15688 1 0.16500 119244.000000
5887 12808 1 0.16500 119244.000000
5887 16276 1 0.16500 119244.000000
5888 12808 1 0.16500 119244.000000
5888 15182 1 0.16500 119244.000000
5889 12809 1 0.16500 119244.000000
5889 13264 1 0.16500 119244.000000
5890 12809 1 0.16500 119244.000000
5890 14014 1 0.16500 119244.000000
5891 12809 1 0.16500 119244.000000
5891 14832 1 0.16500 119244.000000
5892 13230 1 0.16500 119244.000000
5892 22873 1 0.16500 119244.000000
5893 12271 1 0.16500 119244.000000
5893 22873 1 0.16500 119244.000000
5894 14675 1 0.16500 119244.000000
5894 22873 1 0.16500 119244.000000
5895 12810 1 0.16500 119244.000000
5895 14285 1 0.16500 119244.000000
5896 12810 1 0.16500 119244.000000
5896 15331 1 0.16500 119244.000000
5897 12810 1 0.16500 119244.000000
5897 14427 1 0.16500 119244.000000
5898 12811 1 0.16500 119244.000000
5898 15817 1 0.16500 119244.000000
5899 12811 1 0.16500 119244.000000
5899 15338 1 0.16500 119244.000000
5900 12811 1 0.16500 119244.000000
5900 14648 1 0.16500 119244.000000
5901 12812 1 0.16500 119244.000000
5901 14090 1 0.16500 119244.000000
5902 12812 1 0.16500 119244.000000
5902 13025 1 0.16500 119244.000000
5903 12812 1 0.16500 119244.000000
5903 13542 1 0.16500 119244.000000
5904 12813 1 0.16500 119244.000000
5904 13283 1 0.16500 119244.000000
5905 12813 1 0.16500 119244.000000
5905 14464 1 0.16500 119244.000000
5906 12813 1 0.16500 119244.000000
5906 15890 1 0.16500 119244.000000
5907 12813 1 0.16500 119244.000000
5907 13401 1 0.16500 119244.000000
5908 12814 1 0.16500 119244.000000
5908 15341 1 0.16500 119244.000000
5909 12002 1 0.16500 119244.000000
5909 12814 1 0.16500 119244.000000
5910 12814 1 0.16500 119244.000000
5910 13069 1 0.16500 119244.000000
5911 12815 1 0.16500 119244.000000
5911 14159 1 0.16500 119244.000000
5912 12815 1 0.16500 119244.000000
5912 13332 1 0.16500 119244.000000
5913 12815 1 0.16500 119244.000000
5913 14870 1 0.16500 119244.000000
5914 12816 1 0.16500 119244.000000
5914 14862 1 0.16500 119244.000000
5915 12816 1 0.16500 119244.000000
5915 14963 1 0.16500 119244.000000
5916 12816 1 0.16500 119244.000000
5916 13095 1 0.16500 119244.000000
5917 12817 1 0.16500 119244.000000
5917 13108 1 0.16500 119244.000000
5918 12817 1 0.16500 119244.000000
5918 13485 1 0.16500 119244.000000
5919 16028 1 0.16500 119244.000000
5919 21205 1 0.16500 119244.000000
5920 11437 1 0.16500 119244.000000
5920 12818 1 0.16500 119244.000000
5921 12818 1 0.16500 119244.000000
5921 15066 1 0.16500 119244.000000
5922 12818 1 0.16500 119244.000000
5922 13149 1 0.16500 119244.000000
5923 12819 1 0.16500 119244.000000
5923 15678 1 0.16500 119244.000000
5924 12819 1 0.16500 119244.000000
5924 15451 1 0.16500 119244.000000
5925 12819 1 0.16500 119244.000000
5925 13025 1 0.16500 119244.000000
5926 12820 1 0.16500 119244.000000
5926 14055 1 0.16500 119244.000000
5927 12086 1 0.16500 119244.000000
5927 13304 1 0.16500 119244.000000
5928 12821 1 0.16500 119244.000000
5928 15822 1 0.16500 119244.000000
5929 12821 1 0.16500 119244.000000
5929 14785 1 0.16500 119244.000000
5930 12822 1 0.16500 119244.000000
5930 13613 1 0.16500 119244.000000
5931 12822 1 0.16500 119244.000000
5931 16077 1 0.16500 119244.000000
5932 12822 1 0.16500 119244.000000
5932 13891 1 0.16500 119244.000000
5933 12822 1 0.16500 119244.000000
5933 13982 1 0.16500 119244.000000
5934 12823 1 0.16500 119244.000000
5934 13505 1 0.16500 119244.000000
5935 12824 1 0.16500 119244.000000
5935 14461 1 0.16500 119244.000000
5936 12824 1 0.16500 119244.000000
5936 14043 1 0.16500 119244.000000
5937 12825 1 0.16500 119244.000000
5937 13794 1 0.16500 119244.000000
5938 12825 1 0.16500 119244.000000
5938 13283 1 0.16500 119244.000000
5939 12826 1 0.16500 119244.000000
5939 14266 1 0.16500 119244.000000
5940 12826 1 0.16500 119244.000000
5940 13323 1 0.16500 119244.000000
5941 12826 1 0.16500 119244.000000
5941 14567 1 0.16500 119244.000000
5942 12826 1 0.16500 119244.000000
5942 14106 1 0.16500 119244.000000
5943 15554 1 0.16500 119244.000000
5943 15934 1 0.16500 119244.000000
5944 13798 1 0.16500 119244.000000
5944 15554 1 0.16500 119244.000000
5945 12827 1 0.16500 119244.000000
5945 15554 1 0.16500 119244.000000
5946 12828 1 0.16500 119244.000000
5946 14897 1 0.16500 119244.000000
5947 12828 1 0.16500 119244.000000
5947 14896 1 0.16500 119244.000000
5948 12828 1 0.16500 119244.000000
5948 13026 1 0.16500 119244.000000
5949 12829 1 0.16500 119244.000000
5949 16110 1 0.16500 119244.000000
5950 12829 1 0.16500 119244.000000
5950 13655 1 0.16500 119244.000000
5951 12829 1 0.16500 119244.000000
5951 12958 1 0.16500 119244.000000
5952 12829 1 0.16500 119244.000000
5952 13304 1 0.16500 119244.000000
5953 12830 1 0.16500 119244.000000
5953 13732 1 0.16500 119244.000000
5954 12830 1 0.16500 119244.000000
5954 15228 1 0.16500 119244.000000
5955 12597 1 0.16500 119244.000000
5955 12830 1 0.16500 119244.000000
5956 12830 1 0.16500 119244.000000
5956 15846 1 0.16500 119244.000000
5957 12831 1 0.16500 119244.000000
5957 13976 1 0.16500 119244.000000
5958 12831 1 0.16500 119244.000000
5958 13520 1 0.16500 119244.000000
5959 12831 1 0.16500 119244.000000
5959 13286 1 0.16500 119244.000000
5960 12831 1 0.16500 119244.000000
5960 15068 1 0.16500 119244.000000
5961 12832 1 0.16500 119244.000000
5961 13253 1 0.16500 119244.000000
5962 12832 1 0.16500 119244.000000
5962 13454 1 0.16500 119244.000000
5963 14846 1 0.16500 119244.000000
5963 19225 1 0.16500 119244.000000
5964 12833 1 0.16500 119244.000000
5964 13146 1 0.16500 119244.000000
5965 12833 1 0.16500 119244.000000
5965 19225 1 0.16500 119244.000000
5966 12834 1 0.16500 119244.000000
5966 15206 1 0.16500 119244.000000
5967 12834 1 0.16500 119244.000000
5967 15005 1 0.16500 119244.000000
5968 12835 1 0.16500 119244.000000
5968 13749 1 0.16500 119244.000000
5969 12533 1 0.16500 119244.000000
5969 12835 1 0.16500 119244.000000
5970 12836 1 0.16500 119244.000000
5970 14026 1 0.16500 119244.000000
5971 12836 1 0.16500 119244.000000
5971 14013 1 0.16500 119244.000000
5972 12836 1 0.16500 119244.000000
5972 13328 1 0.16500 119244.000000
5973 13201 1 0.16500 119244.000000
5973 14026 1 0.16500 119244.000000
5974 16231 1 0.16500 119244.000000
5974 23851 1 0.16500 119244.000000
5975 19669 1 0.16500 119244.000000
5975 23851 1 0.16500 119244.000000
5976 12837 1 0.16500 119244.000000
5976 13454 1 0.16500 119244.000000
5977 12837 1 0.16500 119244.000000
5977 15024 1 0.16500 119244.000000
5978 13297 1 0.16500 119244.000000
5978 14003 1 0.16500 119244.000000
5979 18529 1 0.16500 119244.000000
5979 21349 1 0.16500 119244.000000
5980 13297 1 0.16500 119244.000000
5980 18529 1 0.16500 119244.000000
5981 13297 1 0.16500 119244.000000
5981 14597 1 0.16500 119244.000000
5982 12838 1 0.16500 119244.000000
5982 13785 1 0.16500 119244.000000
5983 12838 1 0.16500 119244.000000
5983 13010 1 0.16500 119244.000000
5984 12839 1 0.16500 119244.000000
5984 15281 1 0.16500 119244.000000
5985 12839 1 0.16500 119244.000000
5985 13911 1 0.16500 119244.000000
5986 12839 1 0.16500 119244.000000
5986 13096 1 0.16500 119244.000000
5987 12840 1 0.16500 119244.000000
5987 16096 1 0.16500 119244.000000
5988 12840 1 0.16500 119244.000000
5988 15276 1 0.16500 119244.000000
5989 12841 1 0.16500 119244.000000
5989 15702 1 0.16500 119244.000000
5990 12841 1 0.16500 119244.000000
5990 14415 1 0.16500 119244.000000
5991 20557 1 0.16500 119244.000000
5991 24151 1 0.16500 119244.000000
5992 12988 1 0.16500 119244.000000
5992 20557 1 0.16500 119244.000000
5993 12842 1 0.16500 119244.000000
5993 14982 1 0.16500 119244.000000
5994 12842 1 0.16500 119244.000000
5994 13337 1 0.16500 119244.000000
5995 12842 1 0.16500 119244.000000
5995 16030 1 0.16500 119244.000000
5996 12842 1 0.16500 119244.000000
5996 14660 1 0.16500 119244.000000
5997 21637 1 0.16500 119244.000000
5997 23509 1 0.16500 119244.000000
5998 13744 1 0.16500 119244.000000
5998 23509 1 0.16500 119244.000000
5999 12843 1 0.16500 119244.000000
5999 15535 1 0.16500 119244.000000
6000 20041 1 0.16500 119244.000000
6000 22765 1 0.16500 119244.000000
6001 16182 1 0.16500 119244.000000
6001 22765 1 0.16500 119244.000000
6002 12844 1 0.16500 119244.000000
6002 15086 1 0.16500 119244.000000
6003 12844 1 0.16500 119244.000000
6003 13545 1 0.16500 119244.000000
6004 12844 1 0.16500 119244.000000
6004 12873 1 0.16500 119244.000000
6005 16090 1 0.16500 119244.000000
6005 18889 1 0.16500 119244.000000
6006 15106 1 0.16500 119244.000000
6006 18889 1 0.16500 119244.000000
6007 12845 1 0.16500 119244.000000
6007 15234 1 0.16500 119244.000000
6008 12845 1 0.16500 119244.000000
6008 12937 1 0.16500 119244.000000
6009 12845 1 0.16500 119244.000000
6009 15216 1 0.16500 119244.000000
6010 12845 1 0.16500 119244.000000
6010 13515 1 0.16500 119244.000000
6011 12846 1 0.16500 119244.000000
6011 15257 1 0.16500 119244.000000
6012 12846 1 0.16500 119244.000000
6012 15669 1 0.16500 119244.000000
6013 12847 1 0.16500 119244.000000
6013 12916 1 0.16500 119244.000000
6014 12847 1 0.16500 119244.000000
6014 21937 1 0.16500 119244.000000
6015 12847 1 0.16500 119244.000000
6015 14868 1 0.16500 119244.000000
6016 12848 1 0.16500 119244.000000
6016 16183 1 0.16500 119244.000000
6017 12848 1 0.16500 119244.000000
6017 14419 1 0.16500 119244.000000
6018 12848 1 0.16500 119244.000000
6018 14717 1 0.16500 119244.000000
6019 12848 1 0.16500 119244.000000
6019 16014 1 0.16500 119244.000000
6020 11525 1 0.16500 119244.000000
6020 13140 1 0.16500 119244.000000
6021 11525 1 0.16500 119244.000000
6021 15966 1 0.16500 119244.000000
6022 12850 1 0.16500 119244.000000
6022 15150 1 0.16500 119244.000000
6023 12850 1 0.16500 119244.000000
6023 13486 1 0.16500 119244.000000
6024 12850 1 0.16500 119244.000000
6024 13502 1 0.16500 119244.000000
6025 12850 1 0.16500 119244.000000
6025 14571 1 0.16500 119244.000000
6026 16423 1 0.16500 119244.000000
6026 23854 1 0.16500 119244.000000
6027 14986 1 0.16500 119244.000000
6027 23854 1 0.16500 119244.000000
6028 12851 1 0.16500 119244.000000
6028 13477 1 0.16500 119244.000000
6029 12851 1 0.16500 119244.000000
6029 14959 1 0.16500 119244.000000
6030 12851 1 0.16500 119244.000000
6030 15818 1 0.16500 119244.000000
6031 15797 1 0.16500 119244.000000
6031 21313 1 0.16500 119244.000000
6032 15797 1 0.16500 119244.000000
6032 21325 1 0.16500 119244.000000
6033 12852 1 0.16500 119244.000000
6033 13426 1 0.16500 119244.000000
6034 12852 1 0.16500 119244.000000
6034 14230 1 0.16500 119244.000000
6035 12853 1 0.16500 119244.000000
6035 13348 1 0.16500 119244.000000
6036 12853 1 0.16500 119244.000000
6036 16244 1 0.16500 119244.000000
6037 12853 1 0.16500 119244.000000
6037 13614 1 0.16500 119244.000000
6038 12897 1 0.16500 119244.000000
6038 22657 1 0.16500 119244.000000
6039 12854 1 0.16500 119244.000000
6039 13751 1 0.16500 119244.000000
6040 12854 1 0.16500 119244.000000
6040 15884 1 0.16500 119244.000000
6041 12854 1 0.16500 119244.000000
6041 13398 1 0.16500 119244.000000
6042 12854 1 0.16500 119244.000000
6042 15389 1 0.16500 119244.000000
6043 12855 1 0.16500 119244.000000
6043 15984 1 0.16500 119244.000000
6044 12855 1 0.16500 119244.000000
6044 14184 1 0.16500 119244.000000
6045 12855 1 0.16500 119244.000000
6045 15474 1 0.16500 119244.000000
6046 12855 1 0.16500 119244.000000
6046 15922 1 0.16500 119244.000000
6047 12856 1 0.16500 119244.000000
6047 15572 1 0.16500 119244.000000
6048 12856 1 0.16500 119244.000000
6048 13940 1 0.16500 119244.000000
6049 12856 1 0.16500 119244.000000
6049 15202 1 0.16500 119244.000000
6050 12857 1 0.16500 119244.000000
6050 16190 1 0.16500 119244.000000
6051 13477 1 0.16500 119244.000000
6051 24377 1 0.16500 119244.000000
6052 12858 1 0.16500 119244.000000
6052 14648 1 0.16500 119244.000000
6053 12858 1 0.16500 119244.000000
6053 15310 1 0.16500 119244.000000
6054 12858 1 0.16500 119244.000000
6054 14510 1 0.16500 119244.000000
6055 12859 1 0.16500 119244.000000
6055 14680 1 0.16500 119244.000000
6056 12859 1 0.16500 119244.000000
6056 13657 1 0.16500 119244.000000
6057 12859 1 0.16500 119244.000000
6057 16885 1 0.16500 119244.000000
6058 12860 1 0.16500 119244.000000
6058 14545 1 0.16500 119244.000000
6059 12860 1 0.16500 119244.000000
6059 15872 1 0.16500 119244.000000
6060 12860 1 0.16500 119244.000000
6060 15707 1 0.16500 119244.000000
6061 12861 1 0.16500 119244.000000
6061 16130 1 0.16500 119244.000000
6062 12862 1 0.16500 119244.000000
6062 13009 1 0.16500 119244.000000
6063 12862 1 0.16500 119244.000000
6063 14537 1 0.16500 119244.000000
6064 12862 1 0.16500 119244.000000
6064 15598 1 0.16500 119244.000000
6065 12863 1 0.16500 119244.000000
6065 13214 1 0.16500 119244.000000
6066 12863 1 0.16500 119244.000000
6066 16185 1 0.16500 119244.000000
6067 12863 1 0.16500 119244.000000
6067 15240 1 0.16500 119244.000000
6068 12864 1 0.16500 119244.000000
6068 15589 1 0.16500 119244.000000
6069 12864 1 0.16500 119244.000000
6069 13347 1 0.16500 119244.000000
6070 12865 1 0.16500 119244.000000
6070 15379 1 0.16500 119244.000000
6071 12865 1 0.16500 119244.000000
6071 14831 1 0.16500 119244.000000
6072 12865 1 0.16500 119244.000000
6072 16061 1 0.16500 119244.000000
6073 12865 1 0.16500 119244.000000
6073 14132 1 0.16500 119244.000000
6074 12866 1 0.16500 119244.000000
6074 14054 1 0.16500 119244.000000
6075 12866 1 0.16500 119244.000000
6075 14048 1 0.16500 119244.000000
6076 12867 1 0.16500 119244.000000
6076 16251 1 0.16500 119244.000000
6077 12867 1 0.16500 119244.000000
6077 14574 1 0.16500 119244.000000
6078 12867 1 0.16500 119244.000000
6078 15729 1 0.16500 119244.000000
6079 13747 1 0.16500 119244.000000
6079 21301 1 0.16500 119244.000000
6080 15165 1 0.16500 119244.000000
6080 21301 1 0.16500 119244.000000
6081 12868 1 0.16500 119244.000000
6081 14520 1 0.16500 119244.000000
6082 12868 1 0.16500 119244.000000
6082 14934 1 0.16500 119244.000000
6083 12868 1 0.16500 119244.000000
6083 14216 1 0.16500 119244.000000
6084 12869 1 0.16500 119244.000000
6084 13519 1 0.16500 119244.000000
6085 12869 1 0.16500 119244.000000
6085 14223 1 0.16500 119244.000000
6086 12869 1 0.16500 119244.000000
6086 13249 1 0.16500 119244.000000
6087 12869 1 0.16500 119244.000000
6087 14543 1 0.16500 119244.000000
6088 16246 1 0.16500 119244.000000
6088 23857 1 0.16500 119244.000000
6089 22921 1 0.16500 119244.000000
6089 23857 1 0.16500 119244.000000
6090 12870 1 0.16500 119244.000000
6090 15057 1 0.16500 119244.000000
6091 12870 1 0.16500 119244.000000
6091 15728 1 0.16500 119244.000000
6092 12870 1 0.16500 119244.000000
6092 13952 1 0.16500 119244.000000
6093 12870 1 0.16500 119244.000000
6093 13693 1 0.16500 119244.000000
6094 12871 1 0.16500 119244.000000
6094 14864 1 0.16500 119244.000000
6095 12871 1 0.16500 119244.000000
6095 15955 1 0.16500 119244.000000
6096 12871 1 0.16500 119244.000000
6096 13176 1 0.16500 119244.000000
6097 12872 1 0.16500 119244.000000
6097 13220 1 0.16500 119244.000000
6098 12872 1 0.16500 119244.000000
6098 13278 1 0.16500 119244.000000
6099 14214 1 0.16500 119244.000000
6099 21817 1 0.16500 119244.000000
6100 18637 1 0.16500 119244.000000
6100 21817 1 0.16500 119244.000000
6101 13866 1 0.16500 119244.000000
6101 21817 1 0.16500 119244.000000
6102 12873 1 0.16500 119244.000000
6102 14635 1 0.16500 119244.000000
6103 12873 1 0.16500 119244.000000
6103 16188 1 0.16500 119244.000000
6104 12874 1 0.16500 119244.000000
6104 15678 1 0.16500 119244.000000
6105 12874 1 0.16500 119244.000000
6105 13332 1 0.16500 119244.000000
6106 12874 1 0.16500 119244.000000
6106 14059 1 0.16500 119244.000000
6107 12874 1 0.16500 119244.000000
6107 14368 1 0.16500 119244.000000
6108 19741 1 0.16500 119244.000000
6108 23065 1 0.16500 119244.000000
6109 15558 1 0.16500 119244.000000
6109 23065 1 0.16500 119244.000000
6110 15045 1 0.16500 119244.000000
6110 23065 1 0.16500 119244.000000
6111 12875 1 0.16500 119244.000000
6111 14272 1 0.16500 119244.000000
6112 14677 1 0.16500 119244.000000
6112 14949 1 0.16500 119244.000000
6113 12875 1 0.16500 119244.000000
6113 14677 1 0.16500 119244.000000
6114 15671 1 0.16500 119244.000000
6114 15723 1 0.16500 119244.000000
6115 12876 1 0.16500 119244.000000
6115 15295 1 0.16500 119244.000000
6116 12877 1 0.16500 119244.000000
6116 23788 1 0.16500 119244.000000
6117 12877 1 0.16500 119244.000000
6117 15946 1 0.16500 119244.000000
6118 12878 1 0.16500 119244.000000
6118 15782 1 0.16500 119244.000000
6119 12879 1 0.16500 119244.000000
6119 15498 1 0.16500 119244.000000
6120 12879 1 0.16500 119244.000000
6120 12909 1 0.16500 119244.000000
6121 12879 1 0.16500 119244.000000
6121 13541 1 0.16500 119244.000000
6122 15557 1 0.16500 119244.000000
6122 18565 1 0.16500 119244.000000
6123 13587 1 0.16500 119244.000000
6123 18565 1 0.16500 119244.000000
6124 12880 1 0.16500 119244.000000
6124 14341 1 0.16500 119244.000000
6125 12880 1 0.16500 119244.000000
6125 15583 1 0.16500 119244.000000
6126 12880 1 0.16500 119244.000000
6126 16773 1 0.16500 119244.000000
6127 12880 1 0.16500 119244.000000
6127 13051 1 0.16500 119244.000000
6128 12881 1 0.16500 119244.000000
6128 13262 1 0.16500 119244.000000
6129 11964 1 0.16500 119244.000000
6129 12882 1 0.16500 119244.000000
6130 12882 1 0.16500 119244.000000
6130 24121 1 0.16500 119244.000000
6131 12882 1 0.16500 119244.000000
6131 13978 1 0.16500 119244.000000
6132 12883 1 0.16500 119244.000000
6132 12884 1 0.16500 119244.000000
6133 12883 1 0.16500 119244.000000
6133 13067 1 0.16500 119244.000000
6134 12883 1 0.16500 119244.000000
6134 15144 1 0.16500 119244.000000
6135 13291 1 0.16500 119244.000000
6135 15065 1 0.16500 119244.000000
6136 12884 1 0.16500 119244.000000
6136 12912 1 0.16500 119244.000000
6137 12885 1 0.16500 119244.000000
6137 14611 1 0.16500 119244.000000
6138 12885 1 0.16500 119244.000000
6138 13356 1 0.16500 119244.000000
6139 12885 1 0.16500 119244.000000
6139 13622 1 0.16500 119244.000000
6140 12885 1 0.16500 119244.000000
6140 15677 1 0.16500 119244.000000
6141 12886 1 0.16500 119244.000000
6141 13029 1 0.16500 119244.000000
6142 12886 1 0.16500 119244.000000
6142 15597 1 0.16500 119244.000000
6143 12886 1 0.16500 119244.000000
6143 13902 1 0.16500 119244.000000
6144 12887 1 0.16500 119244.000000
6144 24244 1 0.16500 119244.000000
6145 13831 1 0.16500 119244.000000
6145 14373 1 0.16500 119244.000000
6146 12888 1 0.16500 119244.000000
6146 13831 1 0.16500 119244.000000
6147 13831 1 0.16500 119244.000000
6147 15439 1 0.16500 119244.000000
6148 19633 1 0.16500 119244.000000
6148 24397 1 0.16500 119244.000000
6149 19633 1 0.16500 119244.000000
6149 21949 1 0.16500 119244.000000
6150 12889 1 0.16500 119244.000000
6150 18853 1 0.16500 119244.000000
6151 12889 1 0.16500 119244.000000
6151 23533 1 0.16500 119244.000000
6152 12889 1 0.16500 119244.000000
6152 24172 1 0.16500 119244.000000
6153 12889 1 0.16500 119244.000000
6153 15171 1 0.16500 119244.000000
6154 12890 1 0.16500 119244.000000
6154 13867 1 0.16500 119244.000000
6155 12891 1 0.16500 119244.000000
6155 13860 1 0.16500 119244.000000
6156 12891 1 0.16500 119244.000000
6156 14016 1 0.16500 119244.000000
6157 12891 1 0.16500 119244.000000
6157 13699 1 0.16500 119244.000000
6158 12892 1 0.16500 119244.000000
6158 15528 1 0.16500 119244.000000
6159 12892 1 0.16500 119244.000000
6159 13674 1 0.16500 119244.000000
6160 12893 1 0.16500 119244.000000
6160 14051 1 0.16500 119244.000000
6161 12482 1 0.16500 119244.000000
6161 13361 1 0.16500 119244.000000
6162 13361 1 0.16500 119244.000000
6162 15407 1 0.16500 119244.000000
6163 13316 1 0.16500 119244.000000
6163 23860 1 0.16500 119244.000000
6164 13428 1 0.16500 119244.000000
6164 23860 1 0.16500 119244.000000
6165 12894 1 0.16500 119244.000000
6165 14095 1 0.16500 119244.000000
6166 12894 1 0.16500 119244.000000
6166 13646 1 0.16500 119244.000000
6167 13981 1 0.16500 119244.000000
6167 16009 1 0.16500 119244.000000
6168 12895 1 0.16500 119244.000000
6168 15550 1 0.16500 119244.000000
6169 12895 1 0.16500 119244.000000
6169 15175 1 0.16500 119244.000000
6170 12895 1 0.16500 119244.000000
6170 13981 1 0.16500 119244.000000
6171 12896 1 0.16500 119244.000000
6171 15109 1 0.16500 119244.000000
6172 12896 1 0.16500 119244.000000
6172 24040 1 0.16500 119244.000000
6173 12897 1 0.16500 119244.000000
6173 14132 1 0.16500 119244.000000
6174 12897 1 0.16500 119244.000000
6174 14105 1 0.16500 119244.000000
6175 15577 1 0.16500 119244.000000
6175 16279 1 0.16500 119244.000000
6176 12898 1 0.16500 119244.000000
6176 13311 1 0.16500 119244.000000
6177 12898 1 0.16500 119244.000000
6177 15933 1 0.16500 119244.000000
6178 11698 1 0.16500 119244.000000
6178 16279 1 0.16500 119244.000000
6179 12899 1 0.16500 119244.000000
6179 14642 1 0.16500 119244.000000
6180 12899 1 0.16500 119244.000000
6180 12927 1 0.16500 119244.000000
6181 12900 1 0.16500 119244.000000
6181 15375 1 0.16500 119244.000000
6182 12900 1 0.16500 119244.000000
6182 15970 1 0.16500 119244.000000
6183 12900 1 0.16500 119244.000000
6183 13904 1 0.16500 119244.000000
6184 12900 1 0.16500 119244.000000
6184 14062 1 0.16500 119244.000000
6185 12901 1 0.16500 119244.000000
6185 14161 1 0.16500 119244.000000
6186 12901 1 0.16500 119244.000000
6186 13254 1 0.16500 119244.000000
6187 12901 1 0.16500 119244.000000
6187 24226 1 0.16500 119244.000000
6188 12902 1 0.16500 119244.000000
6188 13133 1 0.16500 119244.000000
6189 12902 1 0.16500 119244.000000
6189 16014 1 0.16500 119244.000000
6190 12902 1 0.16500 119244.000000
6190 14003 1 0.16500 119244.000000
6191 12902 1 0.16500 119244.000000
6191 13375 1 0.16500 119244.000000
6192 14188 1 0.16500 119244.000000
6192 18697 1 0.16500 119244.000000
6193 12903 1 0.16500 119244.000000
6193 14240 1 0.16500 119244.000000
6194 12903 1 0.16500 119244.000000
6194 13443 1 0.16500 119244.000000
6195 12903 1 0.16500 119244.000000
6195 14589 1 0.16500 119244.000000
6196 12903 1 0.16500 119244.000000
6196 13956 1 0.16500 119244.000000
6197 19741 1 0.16500 119244.000000
6197 20125 1 0.16500 119244.000000
6198 14784 1 0.16500 119244.000000
6198 20125 1 0.16500 119244.000000
6199 14143 1 0.16500 119244.000000
6199 17277 1 0.16500 119244.000000
6200 12904 1 0.16500 119244.000000
6200 15549 1 0.16500 119244.000000
6201 12904 1 0.16500 119244.000000
6201 14333 1 0.16500 119244.000000
6202 12904 1 0.16500 119244.000000
6202 13156 1 0.16500 119244.000000
6203 12905 1 0.16500 119244.000000
6203 13287 1 0.16500 119244.000000
6204 12905 1 0.16500 119244.000000
6204 13239 1 0.16500 119244.000000
6205 12906 1 0.16500 119244.000000
6205 14018 1 0.16500 119244.000000
6206 12906 1 0.16500 119244.000000
6206 15761 1 0.16500 119244.000000
6207 12906 1 0.16500 119244.000000
6207 14581 1 0.16500 119244.000000
6208 12907 1 0.16500 119244.000000
6208 14164 1 0.16500 119244.000000
6209 12907 1 0.16500 119244.000000
6209 14156 1 0.16500 119244.000000
6210 12908 1 0.16500 119244.000000
6210 14619 1 0.16500 119244.000000
6211 12908 1 0.16500 119244.000000
6211 15634 1 0.16500 119244.000000
6212 12908 1 0.16500 119244.000000
6212 14246 1 0.16500 119244.000000
6213 12908 1 0.16500 119244.000000
6213 15999 1 0.16500 119244.000000
6214 12909 1 0.16500 119244.000000
6214 13122 1 0.16500 119244.000000
6215 12910 1 0.16500 119244.000000
6215 13463 1 0.16500 119244.000000
6216 12910 1 0.16500 119244.000000
6216 13076 1 0.16500 119244.000000
6217 12910 1 0.16500 119244.000000
6217 13731 1 0.16500 119244.000000
6218 12911 1 0.16500 119244.000000
6218 14862 1 0.16500 119244.000000
6219 12911 1 0.16500 119244.000000
6219 20737 1 0.16500 119244.000000
6220 12912 1 0.16500 119244.000000
6220 15341 1 0.16500 119244.000000
6221 12913 1 0.16500 119244.000000
6221 16160 1 0.16500 119244.000000
6222 12610 1 0.16500 119244.000000
6222 12913 1 0.16500 119244.000000
6223 12914 1 0.16500 119244.000000
6223 15401 1 0.16500 119244.000000
6224 12914 1 0.16500 119244.000000
6224 23977 1 0.16500 119244.000000
6225 12914 1 0.16500 119244.000000
6225 20281 1 0.16500 119244.000000
6226 12915 1 0.16500 119244.000000
6226 14455 1 0.16500 119244.000000
6227 12915 1 0.16500 119244.000000
6227 15814 1 0.16500 119244.000000
6228 12915 1 0.16500 119244.000000
6228 13861 1 0.16500 119244.000000
6229 15040 1 0.16500 119244.000000
6229 23863 1 0.16500 119244.000000
6230 16239 1 0.16500 119244.000000
6230 23866 1 0.16500 119244.000000
6231 13846 1 0.16500 119244.000000
6231 23866 1 0.16500 119244.000000
6232 21721 1 0.16500 119244.000000
6232 23866 1 0.16500 119244.000000
6233 16591 1 0.16500 119244.000000
6233 20881 1 0.16500 119244.000000
6234 12315 1 0.16500 119244.000000
6234 13761 1 0.16500 119244.000000
6235 12916 1 0.16500 119244.000000
6235 20749 1 0.16500 119244.000000
6236 12917 1 0.16500 119244.000000
6236 14069 1 0.16500 119244.000000
6237 12917 1 0.16500 119244.000000
6237 13299 1 0.16500 119244.000000
6238 12917 1 0.16500 119244.000000
6238 14804 1 0.16500 119244.000000
6239 12918 1 0.16500 119244.000000
6239 15670 1 0.16500 119244.000000
6240 12918 1 0.16500 119244.000000
6240 13690 1 0.16500 119244.000000
6241 12918 1 0.16500 119244.000000
6241 16134 1 0.16500 119244.000000
6242 12918 1 0.16500 119244.000000
6242 16191 1 0.16500 119244.000000
6243 12919 1 0.16500 119244.000000
6243 13596 1 0.16500 119244.000000
6244 12919 1 0.16500 119244.000000
6244 14915 1 0.16500 119244.000000
6245 12920 1 0.16500 119244.000000
6245 15935 1 0.16500 119244.000000
6246 12921 1 0.16500 119244.000000
6246 14833 1 0.16500 119244.000000
6247 12921 1 0.16500 119244.000000
6247 15582 1 0.16500 119244.000000
6248 12922 1 0.16500 119244.000000
6248 15375 1 0.16500 119244.000000
6249 12922 1 0.16500 119244.000000
6249 14222 1 0.16500 119244.000000
6250 12922 1 0.16500 119244.000000
6250 13047 1 0.16500 119244.000000
6251 12923 1 0.16500 119244.000000
6251 17753 1 0.16500 119244.000000
6252 12924 1 0.16500 119244.000000
6252 15677 1 0.16500 119244.000000
6253 12924 1 0.16500 119244.000000
6253 14138 1 0.16500 119244.000000
6254 12924 1 0.16500 119244.000000
6254 13996 1 0.16500 119244.000000
6255 12925 1 0.16500 119244.000000
6255 14163 1 0.16500 119244.000000
6256 14052 1 0.16500 119244.000000
6256 14714 1 0.16500 119244.000000
6257 12925 1 0.16500 119244.000000
6257 13188 1 0.16500 119244.000000
6258 12925 1 0.16500 119244.000000
6258 14052 1 0.16500 119244.000000
6259 12926 1 0.16500 119244.000000
6259 13972 1 0.16500 119244.000000
6260 12926 1 0.16500 119244.000000
6260 15987 1 0.16500 119244.000000
6261 12926 1 0.16500 119244.000000
6261 15419 1 0.16500 119244.000000
6262 19153 1 0.16500 119244.000000
6262 22561 1 0.16500 119244.000000
6263 22561 1 0.16500 119244.000000
6263 24145 1 0.16500 119244.000000
6264 13932 1 0.16500 119244.000000
6264 22561 1 0.16500 119244.000000
6265 13250 1 0.16500 119244.000000
6265 19513 1 0.16500 119244.000000
6266 11334 1 0.16500 119244.000000
6266 15483 1 0.16500 119244.000000
6267 23005 1 0.16500 119244.000000
6267 23869 1 0.16500 119244.000000
6268 12928 1 0.16500 119244.000000
6268 16079 1 0.16500 119244.000000
6269 12928 1 0.16500 119244.000000
6269 15352 1 0.16500 119244.000000
6270 12928 1 0.16500 119244.000000
6270 14474 1 0.16500 119244.000000
6271 12928 1 0.16500 119244.000000
6271 15713 1 0.16500 119244.000000
6272 12929 1 0.16500 119244.000000
6272 15411 1 0.16500 119244.000000
6273 12929 1 0.16500 119244.000000
6273 15235 1 0.16500 119244.000000
6274 12929 1 0.16500 119244.000000
6274 14398 1 0.16500 119244.000000
6275 13746 1 0.16500 119244.000000
6275 14398 1 0.16500 119244.000000
6276 13617 1 0.16500 119244.000000
6276 18961 1 0.16500 119244.000000
6277 13539 1 0.16500 119244.000000
6277 18961 1 0.16500 119244.000000
6278 12930 1 0.16500 119244.000000
6278 16127 1 0.16500 119244.000000
6279 12930 1 0.16500 119244.000000
6279 14657 1 0.16500 119244.000000
6280 12930 1 0.16500 119244.000000
6280 15920 1 0.16500 119244.000000
6281 12930 1 0.16500 119244.000000
6281 14823 1 0.16500 119244.000000
6282 12931 1 0.16500 119244.000000
6282 16187 1 0.16500 119244.000000
6283 12124 1 0.16500 119244.000000
6283 12932 1 0.16500 119244.000000
6284 12932 1 0.16500 119244.000000
6284 15807 1 0.16500 119244.000000
6285 12932 1 0.16500 119244.000000
6285 14840 1 0.16500 119244.000000
6286 12933 1 0.16500 119244.000000
6286 15496 1 0.16500 119244.000000
6287 12933 1 0.16500 119244.000000
6287 15673 1 0.16500 119244.000000
6288 12934 1 0.16500 119244.000000
6288 16068 1 0.16500 119244.000000
6289 12934 1 0.16500 119244.000000
6289 15783 1 0.16500 119244.000000
6290 12935 1 0.16500 119244.000000
6290 16078 1 0.16500 119244.000000
6291 12935 1 0.16500 119244.000000
6291 15824 1 0.16500 119244.000000
6292 12936 1 0.16500 119244.000000
6292 14288 1 0.16500 119244.000000
6293 12936 1 0.16500 119244.000000
6293 14788 1 0.16500 119244.000000
6294 12936 1 0.16500 119244.000000
6294 13740 1 0.16500 119244.000000
6295 12937 1 0.16500 119244.000000
6295 15556 1 0.16500 119244.000000
6296 12937 1 0.16500 119244.000000
6296 15508 1 0.16500 119244.000000
6297 12938 1 0.16500 119244.000000
6297 15546 1 0.16500 119244.000000
6298 12938 1 0.16500 119244.000000
6298 15623 1 0.16500 119244.000000
6299 12938 1 0.16500 119244.000000
6299 15146 1 0.16500 119244.000000
6300 12938 1 0.16500 119244.000000
6300 15241 1 0.16500 119244.000000
6301 12939 1 0.16500 119244.000000
6301 14221 1 0.16500 119244.000000
6302 12939 1 0.16500 119244.000000
6302 24253 1 0.16500 119244.000000
6303 12939 1 0.16500 119244.000000
6303 19933 1 0.16500 119244.000000
6304 12940 1 0.16500 119244.000000
6304 15823 1 0.16500 119244.000000
6305 12940 1 0.16500 119244.000000
6305 15775 1 0.16500 119244.000000
6306 12941 1 0.16500 119244.000000
6306 13954 1 0.16500 119244.000000
6307 12941 1 0.16500 119244.000000
6307 23329 1 0.16500 119244.000000
6308 12941 1 0.16500 119244.000000
6308 16011 1 0.16500 119244.000000
6309 12942 1 0.16500 119244.000000
6309 14689 1 0.16500 119244.000000
6310 12942 1 0.16500 119244.000000
6310 23233 1 0.16500 119244.000000
6311 12943 1 0.16500 119244.000000
6311 13530 1 0.16500 119244.000000
6312 12943 1 0.16500 119244.000000
6312 14101 1 0.16500 119244.000000
6313 12943 1 0.16500 119244.000000
6313 12963 1 0.16500 119244.000000
6314 19369 1 0.16500 119244.000000
6314 23485 1 0.16500 119244.000000
6315 15158 1 0.16500 119244.000000
6315 23485 1 0.16500 119244.000000
6316 12944 1 0.16500 119244.000000
6316 15783 1 0.16500 119244.000000
6317 12944 1 0.16500 119244.000000
6317 15585 1 0.16500 119244.000000
6318 12944 1 0.16500 119244.000000
6318 13668 1 0.16500 119244.000000
6319 12945 1 0.16500 119244.000000
6319 14673 1 0.16500 119244.000000
6320 12945 1 0.16500 119244.000000
6320 14315 1 0.16500 119244.000000
6321 12888 1 0.16500 119244.000000
6321 12945 1 0.16500 119244.000000
6322 12945 1 0.16500 119244.000000
6322 16061 1 0.16500 119244.000000
6323 12946 1 0.16500 119244.000000
6323 13456 1 0.16500 119244.000000
6324 12946 1 0.16500 119244.000000
6324 15057 1 0.16500 119244.000000
6325 12947 1 0.16500 119244.000000
6325 16122 1 0.16500 119244.000000
6326 12947 1 0.16500 119244.000000
6326 13795 1 0.16500 119244.000000
6327 12947 1 0.16500 119244.000000
6327 13372 1 0.16500 119244.000000
6328 12948 1 0.16500 119244.000000
6328 16126 1 0.16500 119244.000000
6329 12948 1 0.16500 119244.000000
6329 16189 1 0.16500 119244.000000
6330 12948 1 0.16500 119244.000000
6330 15532 1 0.16500 119244.000000
6331 12949 1 0.16500 119244.000000
6331 14378 1 0.16500 119244.000000
6332 12949 1 0.16500 119244.000000
6332 16024 1 0.16500 119244.000000
6333 12949 1 0.16500 119244.000000
6333 15070 1 0.16500 119244.000000
6334 12949 1 0.16500 119244.000000
6334 13699 1 0.16500 119244.000000
6335 14244 1 0.16500 119244.000000
6335 23413 1 0.16500 119244.000000
6336 12950 1 0.16500 119244.000000
6336 14094 1 0.16500 119244.000000
6337 14094 1 0.16500 119244.000000
6337 15597 1 0.16500 119244.000000
6338 12951 1 0.16500 119244.000000
6338 13441 1 0.16500 119244.000000
6339 12951 1 0.16500 119244.000000
6339 15916 1 0.16500 119244.000000
6340 12952 1 0.16500 119244.000000
6340 16270 1 0.16500 119244.000000
6341 12952 1 0.16500 119244.000000
6341 20857 1 0.16500 119244.000000
6342 12952 1 0.16500 119244.000000
6342 14999 1 0.16500 119244.000000
6343 12953 1 0.16500 119244.000000
6343 15323 1 0.16500 119244.000000
6344 15323 1 0.16500 119244.000000
6344 15408 1 0.16500 119244.000000
6345 12953 1 0.16500 119244.000000
6345 15943 1 0.16500 119244.000000
6346 12954 1 0.16500 119244.000000
6346 13259 1 0.16500 119244.000000
6347 12954 1 0.16500 119244.000000
6347 15046 1 0.16500 119244.000000
6348 12954 1 0.16500 119244.000000
6348 16195 1 0.16500 119244.000000
6349 12954 1 0.16500 119244.000000
6349 13111 1 0.16500 119244.000000
6350 21805 1 0.16500 119244.000000
6350 23872 1 0.16500 119244.000000
6351 16134 1 0.16500 119244.000000
6351 23872 1 0.16500 119244.000000
6352 12955 1 0.16500 119244.000000
6352 16085 1 0.16500 119244.000000
6353 12955 1 0.16500 119244.000000
6353 15899 1 0.16500 119244.000000
6354 12956 1 0.16500 119244.000000
6354 13115 1 0.16500 119244.000000
6355 12956 1 0.16500 119244.000000
6355 16260 1 0.16500 119244.000000
6356 12568 1 0.16500 119244.000000
6356 15389 1 0.16500 119244.000000
6357 12957 1 0.16500 119244.000000
6357 13972 1 0.16500 119244.000000
6358 12958 1 0.16500 119244.000000
6358 13659 1 0.16500 119244.000000
6359 12958 1 0.16500 119244.000000
6359 14905 1 0.16500 119244.000000
6360 12959 1 0.16500 119244.000000
6360 15408 1 0.16500 119244.000000
6361 13716 1 0.16500 119244.000000
6361 15211 1 0.16500 119244.000000
6362 12959 1 0.16500 119244.000000
6362 14694 1 0.16500 119244.000000
6363 12959 1 0.16500 119244.000000
6363 13716 1 0.16500 119244.000000
6364 12960 1 0.16500 119244.000000
6364 20473 1 0.16500 119244.000000
6365 12960 1 0.16500 119244.000000
6365 14078 1 0.16500 119244.000000
6366 12960 1 0.16500 119244.000000
6366 21601 1 0.16500 119244.000000
6367 12960 1 0.16500 119244.000000
6367 14431 1 0.16500 119244.000000
6368 12961 1 0.16500 119244.000000
6368 13153 1 0.16500 119244.000000
6369 12445 1 0.16500 119244.000000
6369 12961 1 0.16500 119244.000000
6370 12961 1 0.16500 119244.000000
6370 13833 1 0.16500 119244.000000
6371 12962 1 0.16500 119244.000000
6371 14886 1 0.16500 119244.000000
6372 12962 1 0.16500 119244.000000
6372 14334 1 0.16500 119244.000000
6373 12962 1 0.16500 119244.000000
6373 15085 1 0.16500 119244.000000
6374 12963 1 0.16500 119244.000000
6374 16078 1 0.16500 119244.000000
6375 12963 1 0.16500 119244.000000
6375 15201 1 0.16500 119244.000000
6376 12964 1 0.16500 119244.000000
6376 14705 1 0.16500 119244.000000
6377 12964 1 0.16500 119244.000000
6377 14918 1 0.16500 119244.000000
6378 15670 1 0.16500 119244.000000
6378 23875 1 0.16500 119244.000000
6379 19585 1 0.16500 119244.000000
6379 23875 1 0.16500 119244.000000
6380 21805 1 0.16500 119244.000000
6380 23875 1 0.16500 119244.000000
6381 12965 1 0.16500 119244.000000
6381 15922 1 0.16500 119244.000000
6382 15021 1 0.16500 119244.000000
6382 22549 1 0.16500 119244.000000
6383 19165 1 0.16500 119244.000000
6383 21073 1 0.16500 119244.000000
6384 14244 1 0.16500 119244.000000
6384 19165 1 0.16500 119244.000000
6385 13840 1 0.16500 119244.000000
6385 23878 1 0.16500 119244.000000
6386 19837 1 0.16500 119244.000000
6386 23878 1 0.16500 119244.000000
6387 12966 1 0.16500 119244.000000
6387 13610 1 0.16500 119244.000000
6388 12966 1 0.16500 119244.000000
6388 14075 1 0.16500 119244.000000
6389 12966 1 0.16500 119244.000000
6389 14470 1 0.16500 119244.000000
6390 12966 1 0.16500 119244.000000
6390 15630 1 0.16500 119244.000000
6391 12967 1 0.16500 119244.000000
6391 15465 1 0.16500 119244.000000
6392 12967 1 0.16500 119244.000000
6392 12971 1 0.16500 119244.000000
6393 12967 1 0.16500 119244.000000
6393 15986 1 0.16500 119244.000000
6394 12967 1 0.16500 119244.000000
6394 16109 1 0.16500 119244.000000
6395 13217 1 0.16500 119244.000000
6395 22321 1 0.16500 119244.000000
6396 15249 1 0.16500 119244.000000
6396 22321 1 0.16500 119244.000000
6397 14192 1 0.16500 119244.000000
6397 22321 1 0.16500 119244.000000
6398 12968 1 0.16500 119244.000000
6398 13099 1 0.16500 119244.000000
6399 12968 1 0.16500 119244.000000
6399 15431 1 0.16500 119244.000000
6400 13099 1 0.16500 119244.000000
6400 14577 1 0.16500 119244.000000
6401 14656 1 0.16500 119244.000000
6401 15881 1 0.16500 119244.000000
6402 12969 1 0.16500 119244.000000
6402 13572 1 0.16500 119244.000000
6403 12969 1 0.16500 119244.000000
6403 14627 1 0.16500 119244.000000
6404 16134 1 0.16500 119244.000000
6404 21613 1 0.16500 119244.000000
6405 14867 1 0.16500 119244.000000
6405 21613 1 0.16500 119244.000000
6406 12983 1 0.16500 119244.000000
6406 21613 1 0.16500 119244.000000
6407 12970 1 0.16500 119244.000000
6407 13358 1 0.16500 119244.000000
6408 12970 1 0.16500 119244.000000
6408 15691 1 0.16500 119244.000000
6409 12971 1 0.16500 119244.000000
6409 14636 1 0.16500 119244.000000
6410 12972 1 0.16500 119244.000000
6410 13368 1 0.16500 119244.000000
6411 12972 1 0.16500 119244.000000
6411 15491 1 0.16500 119244.000000
6412 14342 1 0.16500 119244.000000
6412 15487 1 0.16500 119244.000000
6413 14319 1 0.16500 119244.000000
6413 15487 1 0.16500 119244.000000
6414 12973 1 0.16500 119244.000000
6414 15487 1 0.16500 119244.000000
6415 12974 1 0.16500 119244.000000
6415 21685 1 0.16500 119244.000000
6416 12975 1 0.16500 119244.000000
6416 15874 1 0.16500 119244.000000
6417 15473 1 0.16500 119244.000000
6417 17473 1 0.16500 119244.000000
6418 12975 1 0.16500 119244.000000
6418 15473 1 0.16500 119244.000000
6419 12976 1 0.16500 119244.000000
6419 13269 1 0.16500 119244.000000
6420 12976 1 0.16500 119244.000000
6420 15804 1 0.16500 119244.000000
6421 12977 1 0.16500 119244.000000
6421 14085 1 0.16500 119244.000000
6422 12977 1 0.16500 119244.000000
6422 15272 1 0.16500 119244.000000
6423 12978 1 0.16500 119244.000000
6423 13112 1 0.16500 119244.000000
6424 12979 1 0.16500 119244.000000
6424 13837 1 0.16500 119244.000000
6425 12979 1 0.16500 119244.000000
6425 20389 1 0.16500 119244.000000
6426 12979 1 0.16500 119244.000000
6426 13989 1 0.16500 119244.000000
6427 12979 1 0.16500 119244.000000
6427 21553 1 0.16500 119244.000000
6428 12980 1 0.16500 119244.000000
6428 15442 1 0.16500 119244.000000
6429 12980 1 0.16500 119244.000000
6429 14209 1 0.16500 119244.000000
6430 12981 1 0.16500 119244.000000
6430 15166 1 0.16500 119244.000000
6431 12981 1 0.16500 119244.000000
6431 13372 1 0.16500 119244.000000
6432 12982 1 0.16500 119244.000000
6432 15715 1 0.16500 119244.000000
6433 12982 1 0.16500 119244.000000
6433 13387 1 0.16500 119244.000000
6434 12983 1 0.16500 119244.000000
6434 14555 1 0.16500 119244.000000
6435 12983 1 0.16500 119244.000000
6435 24130 1 0.16500 119244.000000
6436 12983 1 0.16500 119244.000000
6436 14836 1 0.16500 119244.000000
6437 16016 1 0.16500 119244.000000
6437 24130 1 0.16500 119244.000000
6438 12984 1 0.16500 119244.000000
6438 13707 1 0.16500 119244.000000
6439 12984 1 0.16500 119244.000000
6439 13969 1 0.16500 119244.000000
6440 12985 1 0.16500 119244.000000
6440 18925 1 0.16500 119244.000000
6441 12985 1 0.16500 119244.000000
6441 24232 1 0.16500 119244.000000
6442 12985 1 0.16500 119244.000000
6442 15220 1 0.16500 119244.000000
6443 12986 1 0.16500 119244.000000
6443 13470 1 0.16500 119244.000000
6444 12986 1 0.16500 119244.000000
6444 13258 1 0.16500 119244.000000
6445 12986 1 0.16500 119244.000000
6445 13331 1 0.16500 119244.000000
6446 12986 1 0.16500 119244.000000
6446 13640 1 0.16500 119244.000000
6447 12987 1 0.16500 119244.000000
6447 13379 1 0.16500 119244.000000
6448 12987 1 0.16500 119244.000000
6448 23965 1 0.16500 119244.000000
6449 12987 1 0.16500 119244.000000
6449 13721 1 0.16500 119244.000000
6450 12988 1 0.16500 119244.000000
6450 13384 1 0.16500 119244.000000
6451 12988 1 0.16500 119244.000000
6451 14574 1 0.16500 119244.000000
6452 12988 1 0.16500 119244.000000
6452 20425 1 0.16500 119244.000000
6453 12989 1 0.16500 119244.000000
6453 14253 1 0.16500 119244.000000
6454 12989 1 0.16500 119244.000000
6454 15212 1 0.16500 119244.000000
6455 12989 1 0.16500 119244.000000
6455 15432 1 0.16500 119244.000000
6456 12990 1 0.16500 119244.000000
6456 13619 1 0.16500 119244.000000
6457 12990 1 0.16500 119244.000000
6457 13062 1 0.16500 119244.000000
6458 12990 1 0.16500 119244.000000
6458 13938 1 0.16500 119244.000000
6459 12990 1 0.16500 119244.000000
6459 15609 1 0.16500 119244.000000
6460 12991 1 0.16500 119244.000000
6460 14202 1 0.16500 119244.000000
6461 12991 1 0.16500 119244.000000
6461 13571 1 0.16500 119244.000000
6462 12991 1 0.16500 119244.000000
6462 13848 1 0.16500 119244.000000
6463 12991 1 0.16500 119244.000000
6463 14960 1 0.16500 119244.000000
6464 12992 1 0.16500 119244.000000
6464 14230 1 0.16500 119244.000000
6465 12992 1 0.16500 119244.000000
6465 15017 1 0.16500 119244.000000
6466 12992 1 0.16500 119244.000000
6466 15497 1 0.16500 119244.000000
6467 15059 1 0.16500 119244.000000
6467 21925 1 0.16500 119244.000000
6468 12260 1 0.16500 119244.000000
6468 13720 1 0.16500 119244.000000
6469 12993 1 0.16500 119244.000000
6469 13608 1 0.16500 119244.000000
6470 12260 1 0.16500 119244.000000
6470 14449 1 0.16500 119244.000000
6471 12994 1 0.16500 119244.000000
6471 13765 1 0.16500 119244.000000
6472 12994 1 0.16500 119244.000000
6472 14268 1 0.16500 119244.000000
6473 12995 1 0.16500 119244.000000
6473 15360 1 0.16500 119244.000000
6474 12995 1 0.16500 119244.000000
6474 15022 1 0.16500 119244.000000
6475 12995 1 0.16500 119244.000000
6475 15444 1 0.16500 119244.000000
6476 12996 1 0.16500 119244.000000
6476 13155 1 0.16500 119244.000000
6477 12996 1 0.16500 119244.000000
6477 14595 1 0.16500 119244.000000
6478 12996 1 0.16500 119244.000000
6478 15216 1 0.16500 119244.000000
6479 12596 1 0.16500 119244.000000
6479 12997 1 0.16500 119244.000000
6480 12998 1 0.16500 119244.000000
6480 15530 1 0.16500 119244.000000
6481 12998 1 0.16500 119244.000000
6481 13695 1 0.16500 119244.000000
6482 12998 1 0.16500 119244.000000
6482 14770 1 0.16500 119244.000000
6483 12999 1 0.16500 119244.000000
6483 14621 1 0.16500 119244.000000
6484 12999 1 0.16500 119244.000000
6484 15237 1 0.16500 119244.000000
6485 12999 1 0.16500 119244.000000
6485 14073 1 0.16500 119244.000000
6486 17249 1 0.16500 119244.000000
6486 22861 1 0.16500 119244.000000
6487 14106 1 0.16500 119244.000000
6487 22861 1 0.16500 119244.000000
6488 14047 1 0.16500 119244.000000
6488 14106 1 0.16500 119244.000000
6489 13000 1 0.16500 119244.000000
6489 18649 1 0.16500 119244.000000
6490 13001 1 0.16500 119244.000000
6490 13745 1 0.16500 119244.000000
6491 13001 1 0.16500 119244.000000
6491 15122 1 0.16500 119244.000000
6492 12059 1 0.16500 119244.000000
6492 16353 1 0.16500 119244.000000
6493 13002 1 0.16500 119244.000000
6493 14200 1 0.16500 119244.000000
6494 13002 1 0.16500 119244.000000
6494 15797 1 0.16500 119244.000000
6495 13002 1 0.16500 119244.000000
6495 15291 1 0.16500 119244.000000
6496 11867 1 0.16500 119244.000000
6496 13002 1 0.16500 119244.000000
6497 13003 1 0.16500 119244.000000
6497 13686 1 0.16500 119244.000000
6498 13003 1 0.16500 119244.000000
6498 14544 1 0.16500 119244.000000
6499 13003 1 0.16500 119244.000000
6499 14099 1 0.16500 119244.000000
6500 13003 1 0.16500 119244.000000
6500 24283 1 0.16500 119244.000000
6501 13004 1 0.16500 119244.000000
6501 14578 1 0.16500 119244.000000
6502 13004 1 0.16500 119244.000000
6502 13121 1 0.16500 119244.000000
6503 13005 1 0.16500 119244.000000
6503 13960 1 0.16500 119244.000000
6504 13005 1 0.16500 119244.000000
6504 15677 1 0.16500 119244.000000
6505 13006 1 0.16500 119244.000000
6505 15960 1 0.16500 119244.000000
6506 13006 1 0.16500 119244.000000
6506 13310 1 0.16500 119244.000000
6507 13007 1 0.16500 119244.000000
6507 15398 1 0.16500 119244.000000
6508 13008 1 0.16500 119244.000000
6508 14795 1 0.16500 119244.000000
6509 13008 1 0.16500 119244.000000
6509 14766 1 0.16500 119244.000000
6510 13008 1 0.16500 119244.000000
6510 13249 1 0.16500 119244.000000
6511 13008 1 0.16500 119244.000000
6511 14381 1 0.16500 119244.000000
6512 13009 1 0.16500 119244.000000
6512 16038 1 0.16500 119244.000000
6513 13010 1 0.16500 119244.000000
6513 15347 1 0.16500 119244.000000
6514 13010 1 0.16500 119244.000000
6514 14701 1 0.16500 119244.000000
6515 13011 1 0.16500 119244.000000
6515 13575 1 0.16500 119244.000000
6516 13011 1 0.16500 119244.000000
6516 15318 1 0.16500 119244.000000
6517 13012 1 0.16500 119244.000000
6517 20257 1 0.16500 119244.000000
6518 13012 1 0.16500 119244.000000
6518 13278 1 0.16500 119244.000000
6519 20257 1 0.16500 119244.000000
6519 22045 1 0.16500 119244.000000
6520 13013 1 0.16500 119244.000000
6520 15894 1 0.16500 119244.000000
6521 13013 1 0.16500 119244.000000
6521 13953 1 0.16500 119244.000000
6522 13014 1 0.16500 119244.000000
6522 13089 1 0.16500 119244.000000
6523 13014 1 0.16500 119244.000000
6523 15042 1 0.16500 119244.000000
6524 13014 1 0.16500 119244.000000
6524 13764 1 0.16500 119244.000000
6525 15956 1 0.16500 119244.000000
6525 23881 1 0.16500 119244.000000
6526 13767 1 0.16500 119244.000000
6526 23884 1 0.16500 119244.000000
6527 13015 1 0.16500 119244.000000
6527 13178 1 0.16500 119244.000000
6528 13015 1 0.16500 119244.000000
6528 13898 1 0.16500 119244.000000
6529 13015 1 0.16500 119244.000000
6529 16157 1 0.16500 119244.000000
6530 13016 1 0.16500 119244.000000
6530 16085 1 0.16500 119244.000000
6531 13016 1 0.16500 119244.000000
6531 15667 1 0.16500 119244.000000
6532 13017 1 0.16500 119244.000000
6532 13748 1 0.16500 119244.000000
6533 13017 1 0.16500 119244.000000
6533 20989 1 0.16500 119244.000000
6534 13017 1 0.16500 119244.000000
6534 13275 1 0.16500 119244.000000
6535 13017 1 0.16500 119244.000000
6535 13059 1 0.16500 119244.000000
6536 13018 1 0.16500 119244.000000
6536 13888 1 0.16500 119244.000000
6537 13018 1 0.16500 119244.000000
6537 13528 1 0.16500 119244.000000
6538 13019 1 0.16500 119244.000000
6538 21901 1 0.16500 119244.000000
6539 13019 1 0.16500 119244.000000
6539 14250 1 0.16500 119244.000000
6540 13021 1 0.16500 119244.000000
6540 15127 1 0.16500 119244.000000
6541 13021 1 0.16500 119244.000000
6541 15283 1 0.16500 119244.000000
6542 13021 1 0.16500 119244.000000
6542 14222 1 0.16500 119244.000000
6543 13021 1 0.16500 119244.000000
6543 16056 1 0.16500 119244.000000
6544 13022 1 0.16500 119244.000000
6544 13141 1 0.16500 119244.000000
6545 13022 1 0.16500 119244.000000
6545 13715 1 0.16500 119244.000000
6546 13715 1 0.16500 119244.000000
6546 14224 1 0.16500 119244.000000
6547 11499 1 0.16500 119244.000000
6547 13533 1 0.16500 119244.000000
6548 11499 1 0.16500 119244.000000
6548 15379 1 0.16500 119244.000000
6549 11499 1 0.16500 119244.000000
6549 15343 1 0.16500 119244.000000
6550 13024 1 0.16500 119244.000000
6550 13940 1 0.16500 119244.000000
6551 13024 1 0.16500 119244.000000
6551 13506 1 0.16500 119244.000000
6552 13506 1 0.16500 119244.000000
6552 15572 1 0.16500 119244.000000
6553 13025 1 0.16500 119244.000000
6553 13348 1 0.16500 119244.000000
6554 13025 1 0.16500 119244.000000
6554 14976 1 0.16500 119244.000000
6555 11402 1 0.16500 119244.000000
6555 13026 1 0.16500 119244.000000
6556 15644 1 0.16500 119244.000000
6556 20797 1 0.16500 119244.000000
6557 19213 1 0.16500 119244.000000
6557 20797 1 0.16500 119244.000000
6558 18601 1 0.16500 119244.000000
6558 24382 1 0.16500 119244.000000
6559 13027 1 0.16500 119244.000000
6559 15991 1 0.16500 119244.000000
6560 13027 1 0.16500 119244.000000
6560 21781 1 0.16500 119244.000000
6561 13027 1 0.16500 119244.000000
6561 14150 1 0.16500 119244.000000
6562 13027 1 0.16500 119244.000000
6562 16181 1 0.16500 119244.000000
6563 13028 1 0.16500 119244.000000
6563 14775 1 0.16500 119244.000000
6564 13028 1 0.16500 119244.000000
6564 15679 1 0.16500 119244.000000
6565 13028 1 0.16500 119244.000000
6565 14679 1 0.16500 119244.000000
6566 15700 1 0.16500 119244.000000
6566 23887 1 0.16500 119244.000000
6567 15975 1 0.16500 119244.000000
6567 23887 1 0.16500 119244.000000
6568 23233 1 0.16500 119244.000000
6568 23887 1 0.16500 119244.000000
6569 18781 1 0.16500 119244.000000
6569 24079 1 0.16500 119244.000000
6570 15787 1 0.16500 119244.000000
6570 18781 1 0.16500 119244.000000
6571 13029 1 0.16500 119244.000000
6571 15869 1 0.16500 119244.000000
6572 21025 1 0.16500 119244.000000
6572 23305 1 0.16500 119244.000000
6573 15014 1 0.16500 119244.000000
6573 21025 1 0.16500 119244.000000
6574 23305 1 0.16500 119244.000000
6574 23944 1 0.16500 119244.000000
6575 13030 1 0.16500 119244.000000
6575 16031 1 0.16500 119244.000000
6576 13030 1 0.16500 119244.000000
6576 14838 1 0.16500 119244.000000
6577 13030 1 0.16500 119244.000000
6577 15027 1 0.16500 119244.000000
6578 13031 1 0.16500 119244.000000
6578 16045 1 0.16500 119244.000000
6579 13031 1 0.16500 119244.000000
6579 14889 1 0.16500 119244.000000
6580 13031 1 0.16500 119244.000000
6580 13461 1 0.16500 119244.000000
6581 15516 1 0.16500 119244.000000
6581 21493 1 0.16500 119244.000000
6582 13032 1 0.16500 119244.000000
6582 14868 1 0.16500 119244.000000
6583 13032 1 0.16500 119244.000000
6583 13503 1 0.16500 119244.000000
6584 13032 1 0.16500 119244.000000
6584 15601 1 0.16500 119244.000000
6585 13032 1 0.16500 119244.000000
6585 14656 1 0.16500 119244.000000
6586 13033 1 0.16500 119244.000000
6586 14863 1 0.16500 119244.000000
6587 14863 1 0.16500 119244.000000
6587 15572 1 0.16500 119244.000000
6588 13740 1 0.16500 119244.000000
6588 14561 1 0.16500 119244.000000
6589 13034 1 0.16500 119244.000000
6589 14561 1 0.16500 119244.000000
6590 13034 1 0.16500 119244.000000
6590 14478 1 0.16500 119244.000000
6591 13034 1 0.16500 119244.000000
6591 13643 1 0.16500 119244.000000
6592 13035 1 0.16500 119244.000000
6592 13498 1 0.16500 119244.000000
6593 13035 1 0.16500 119244.000000
6593 13082 1 0.16500 119244.000000
6594 13036 1 0.16500 119244.000000
6594 15304 1 0.16500 119244.000000
6595 13036 1 0.16500 119244.000000
6595 24187 1 0.16500 119244.000000
6596 13036 1 0.16500 119244.000000
6596 15145 1 0.16500 119244.000000
6597 13037 1 0.16500 119244.000000
6597 15599 1 0.16500 119244.000000
6598 13037 1 0.16500 119244.000000
6598 14355 1 0.16500 119244.000000
6599 13037 1 0.16500 119244.000000
6599 13656 1 0.16500 119244.000000
6600 13900 1 0.16500 119244.000000
6600 21781 1 0.16500 119244.000000
6601 19333 1 0.16500 119244.000000
6601 21781 1 0.16500 119244.000000
6602 13038 1 0.16500 119244.000000
6602 14651 1 0.16500 119244.000000
6603 13038 1 0.16500 119244.000000
6603 15206 1 0.16500 119244.000000
6604 13038 1 0.16500 119244.000000
6604 14538 1 0.16500 119244.000000
6605 13038 1 0.16500 119244.000000
6605 15415 1 0.16500 119244.000000
6606 13039 1 0.16500 119244.000000
6606 14183 1 0.16500 119244.000000
6607 13039 1 0.16500 119244.000000
6607 14500 1 0.16500 119244.000000
6608 13040 1 0.16500 119244.000000
6608 14304 1 0.16500 119244.000000
6609 13040 1 0.16500 119244.000000
6609 14021 1 0.16500 119244.000000
6610 13040 1 0.16500 119244.000000
6610 14984 1 0.16500 119244.000000
6611 13040 1 0.16500 119244.000000
6611 13571 1 0.16500 119244.000000
6612 13041 1 0.16500 119244.000000
6612 15074 1 0.16500 119244.000000
6613 13041 1 0.16500 119244.000000
6613 14490 1 0.16500 119244.000000
6614 13041 1 0.16500 119244.000000
6614 15388 1 0.16500 119244.000000
6615 13042 1 0.16500 119244.000000
6615 19369 1 0.16500 119244.000000
6616 13034 1 0.16500 119244.000000
6616 13042 1 0.16500 119244.000000
6617 13042 1 0.16500 119244.000000
6617 24250 1 0.16500 119244.000000
6618 13043 1 0.16500 119244.000000
6618 14572 1 0.16500 119244.000000
6619 13043 1 0.16500 119244.000000
6619 15552 1 0.16500 119244.000000
6620 13044 1 0.16500 119244.000000
6620 14095 1 0.16500 119244.000000
6621 13044 1 0.16500 119244.000000
6621 15847 1 0.16500 119244.000000
6622 13453 1 0.16500 119244.000000
6622 14095 1 0.16500 119244.000000
6623 13045 1 0.16500 119244.000000
6623 15029 1 0.16500 119244.000000
6624 13045 1 0.16500 119244.000000
6624 14702 1 0.16500 119244.000000
6625 13046 1 0.16500 119244.000000
6625 15260 1 0.16500 119244.000000
6626 13046 1 0.16500 119244.000000
6626 14653 1 0.16500 119244.000000
6627 13046 1 0.16500 119244.000000
6627 15387 1 0.16500 119244.000000
6628 13046 1 0.16500 119244.000000
6628 15095 1 0.16500 119244.000000
6629 13047 1 0.16500 119244.000000
6629 15037 1 0.16500 119244.000000
6630 13047 1 0.16500 119244.000000
6630 14630 1 0.16500 119244.000000
6631 13048 1 0.16500 119244.000000
6631 14253 1 0.16500 119244.000000
6632 13048 1 0.16500 119244.000000
6632 15486 1 0.16500 119244.000000
6633 13050 1 0.16500 119244.000000
6633 14058 1 0.16500 119244.000000
6634 13050 1 0.16500 119244.000000
6634 14912 1 0.16500 119244.000000
6635 13050 1 0.16500 119244.000000
6635 14241 1 0.16500 119244.000000
6636 13051 1 0.16500 119244.000000
6636 13978 1 0.16500 119244.000000
6637 13051 1 0.16500 119244.000000
6637 14165 1 0.16500 119244.000000
6638 13051 1 0.16500 119244.000000
6638 24238 1 0.16500 119244.000000
6639 13350 1 0.16500 119244.000000
6639 24387 1 0.16500 119244.000000
6640 13052 1 0.16500 119244.000000
6640 15835 1 0.16500 119244.000000
6641 13052 1 0.16500 119244.000000
6641 13948 1 0.16500 119244.000000
6642 13052 1 0.16500 119244.000000
6642 17137 1 0.16500 119244.000000
6643 13053 1 0.16500 119244.000000
6643 14524 1 0.16500 119244.000000
6644 13054 1 0.16500 119244.000000
6644 15687 1 0.16500 119244.000000
6645 12929 1 0.16500 119244.000000
6645 13054 1 0.16500 119244.000000
6646 13054 1 0.16500 119244.000000
6646 16535 1 0.16500 119244.000000
6647 14751 1 0.16500 119244.000000
6647 19213 1 0.16500 119244.000000
6648 16106 1 0.16500 119244.000000
6648 23890 1 0.16500 119244.000000
6649 14374 1 0.16500 119244.000000
6649 23890 1 0.16500 119244.000000
6650 23617 1 0.16500 119244.000000
6650 23890 1 0.16500 119244.000000
6651 13055 1 0.16500 119244.000000
6651 13426 1 0.16500 119244.000000
6652 13055 1 0.16500 119244.000000
6652 13502 1 0.16500 119244.000000
6653 13055 1 0.16500 119244.000000
6653 14841 1 0.16500 119244.000000
6654 13055 1 0.16500 119244.000000
6654 15627 1 0.16500 119244.000000
6655 13056 1 0.16500 119244.000000
6655 13162 1 0.16500 119244.000000
6656 13056 1 0.16500 119244.000000
6656 13359 1 0.16500 119244.000000
6657 13056 1 0.16500 119244.000000
6657 13689 1 0.16500 119244.000000
6658 14359 1 0.16500 119244.000000
6658 21073 1 0.16500 119244.000000
6659 13057 1 0.16500 119244.000000
6659 15771 1 0.16500 119244.000000
6660 13057 1 0.16500 119244.000000
6660 13287 1 0.16500 119244.000000
6661 13057 1 0.16500 119244.000000
6661 14135 1 0.16500 119244.000000
6662 13058 1 0.16500 119244.000000
6662 13515 1 0.16500 119244.000000
6663 13058 1 0.16500 119244.000000
6663 14482 1 0.16500 119244.000000
6664 13059 1 0.16500 119244.000000
6664 18925 1 0.16500 119244.000000
6665 13059 1 0.16500 119244.000000
6665 14319 1 0.16500 119244.000000
6666 13060 1 0.16500 119244.000000
6666 19609 1 0.16500 119244.000000
6667 13060 1 0.16500 119244.000000
6667 15212 1 0.16500 119244.000000
6668 13061 1 0.16500 119244.000000
6668 13419 1 0.16500 119244.000000
6669 13061 1 0.16500 119244.000000
6669 14346 1 0.16500 119244.000000
6670 13061 1 0.16500 119244.000000
6670 15394 1 0.16500 119244.000000
6671 13062 1 0.16500 119244.000000
6671 14421 1 0.16500 119244.000000
6672 13062 1 0.16500 119244.000000
6672 14679 1 0.16500 119244.000000
6673 13063 1 0.16500 119244.000000
6673 16154 1 0.16500 119244.000000
6674 13063 1 0.16500 119244.000000
6674 15445 1 0.16500 119244.000000
6675 13063 1 0.16500 119244.000000
6675 14343 1 0.16500 119244.000000
6676 13064 1 0.16500 119244.000000
6676 13181 1 0.16500 119244.000000
6677 13064 1 0.16500 119244.000000
6677 16259 1 0.16500 119244.000000
6678 13064 1 0.16500 119244.000000
6678 13207 1 0.16500 119244.000000
6679 13065 1 0.16500 119244.000000
6679 15606 1 0.16500 119244.000000
6680 13065 1 0.16500 119244.000000
6680 15720 1 0.16500 119244.000000
6681 13065 1 0.16500 119244.000000
6681 15293 1 0.16500 119244.000000
6682 13065 1 0.16500 119244.000000
6682 14738 1 0.16500 119244.000000
6683 13066 1 0.16500 119244.000000
6683 13606 1 0.16500 119244.000000
6684 13067 1 0.16500 119244.000000
6684 15472 1 0.16500 119244.000000
6685 13068 1 0.16500 119244.000000
6685 15260 1 0.16500 119244.000000
6686 13068 1 0.16500 119244.000000
6686 13991 1 0.16500 119244.000000
6687 13069 1 0.16500 119244.000000
6687 13367 1 0.16500 119244.000000
6688 13070 1 0.16500 119244.000000
6688 16166 1 0.16500 119244.000000
6689 13070 1 0.16500 119244.000000
6689 14144 1 0.16500 119244.000000
6690 13070 1 0.16500 119244.000000
6690 14673 1 0.16500 119244.000000
6691 13071 1 0.16500 119244.000000
6691 13185 1 0.16500 119244.000000
6692 13071 1 0.16500 119244.000000
6692 15178 1 0.16500 119244.000000
6693 13071 1 0.16500 119244.000000
6693 16033 1 0.16500 119244.000000
6694 13071 1 0.16500 119244.000000
6694 14541 1 0.16500 119244.000000
6695 13072 1 0.16500 119244.000000
6695 23161 1 0.16500 119244.000000
6696 13072 1 0.16500 119244.000000
6696 13463 1 0.16500 119244.000000
6697 13072 1 0.16500 119244.000000
6697 13152 1 0.16500 119244.000000
6698 13072 1 0.16500 119244.000000
6698 19525 1 0.16500 119244.000000
6699 13073 1 0.16500 119244.000000
6699 14744 1 0.16500 119244.000000
6700 13073 1 0.16500 119244.000000
6700 15386 1 0.16500 119244.000000
6701 13073 1 0.16500 119244.000000
6701 13941 1 0.16500 119244.000000
6702 13073 1 0.16500 119244.000000
6702 13631 1 0.16500 119244.000000
6703 13074 1 0.16500 119244.000000
6703 14265 1 0.16500 119244.000000
6704 14265 1 0.16500 119244.000000
6704 16179 1 0.16500 119244.000000
6705 13075 1 0.16500 119244.000000
6705 15282 1 0.16500 119244.000000
6706 13075 1 0.16500 119244.000000
6706 13362 1 0.16500 119244.000000
6707 13076 1 0.16500 119244.000000
6707 13838 1 0.16500 119244.000000
6708 13076 1 0.16500 119244.000000
6708 14104 1 0.16500 119244.000000
6709 13077 1 0.16500 119244.000000
6709 13932 1 0.16500 119244.000000
6710 13077 1 0.16500 119244.000000
6710 15181 1 0.16500 119244.000000
6711 13078 1 0.16500 119244.000000
6711 15625 1 0.16500 119244.000000
6712 13079 1 0.16500 119244.000000
6712 15110 1 0.16500 119244.000000
6713 13079 1 0.16500 119244.000000
6713 14313 1 0.16500 119244.000000
6714 13079 1 0.16500 119244.000000
6714 16271 1 0.16500 119244.000000
6715 12544 1 0.16500 119244.000000
6715 13079 1 0.16500 119244.000000
6716 13080 1 0.16500 119244.000000
6716 13409 1 0.16500 119244.000000
6717 13081 1 0.16500 119244.000000
6717 14454 1 0.16500 119244.000000
6718 13081 1 0.16500 119244.000000
6718 15716 1 0.16500 119244.000000
6719 13081 1 0.16500 119244.000000
6719 13961 1 0.16500 119244.000000
6720 13081 1 0.16500 119244.000000
6720 13681 1 0.16500 119244.000000
6721 20113 1 0.16500 119244.000000
6721 21433 1 0.16500 119244.000000
6722 15697 1 0.16500 119244.000000
6722 21433 1 0.16500 119244.000000
6723 13797 1 0.16500 119244.000000
6723 21433 1 0.16500 119244.000000
6724 13082 1 0.16500 119244.000000
6724 15629 1 0.16500 119244.000000
6725 14206 1 0.16500 119244.000000
6725 19273 1 0.16500 119244.000000
6726 14302 1 0.16500 119244.000000
6726 21421 1 0.16500 119244.000000
6727 13083 1 0.16500 119244.000000
6727 14818 1 0.16500 119244.000000
6728 13083 1 0.16500 119244.000000
6728 15018 1 0.16500 119244.000000
6729 13084 1 0.16500 119244.000000
6729 15336 1 0.16500 119244.000000
6730 13084 1 0.16500 119244.000000
6730 14757 1 0.16500 119244.000000
6731 13084 1 0.16500 119244.000000
6731 16103 1 0.16500 119244.000000
6732 13085 1 0.16500 119244.000000
6732 13190 1 0.16500 119244.000000
6733 13085 1 0.16500 119244.000000
6733 24181 1 0.16500 119244.000000
6734 15622 1 0.16500 119244.000000
6734 24049 1 0.16500 119244.000000
6735 15622 1 0.16500 119244.000000
6735 16229 1 0.16500 119244.000000
6736 13086 1 0.16500 119244.000000
6736 14318 1 0.16500 119244.000000
6737 11707 1 0.16500 119244.000000
6737 24013 1 0.16500 119244.000000
6738 13087 1 0.16500 119244.000000
6738 15135 1 0.16500 119244.000000
6739 13087 1 0.16500 119244.000000
6739 13899 1 0.16500 119244.000000
6740 13087 1 0.16500 119244.000000
6740 14756 1 0.16500 119244.000000
6741 17025 1 0.16500 119244.000000
6741 22381 1 0.16500 119244.000000
6742 13721 1 0.16500 119244.000000
6742 22381 1 0.16500 119244.000000
6743 13088 1 0.16500 119244.000000
6743 14521 1 0.16500 119244.000000
6744 13088 1 0.16500 119244.000000
6744 15444 1 0.16500 119244.000000
6745 13088 1 0.16500 119244.000000
6745 15404 1 0.16500 119244.000000
6746 13089 1 0.16500 119244.000000
6746 14663 1 0.16500 119244.000000
6747 13089 1 0.16500 119244.000000
6747 13273 1 0.16500 119244.000000
6748 13090 1 0.16500 119244.000000
6748 15980 1 0.16500 119244.000000
6749 13090 1 0.16500 119244.000000
6749 13242 1 0.16500 119244.000000
6750 13090 1 0.16500 119244.000000
6750 13547 1 0.16500 119244.000000
6751 13090 1 0.16500 119244.000000
6751 16161 1 0.16500 119244.000000
6752 13091 1 0.16500 119244.000000
6752 16265 1 0.16500 119244.000000
6753 13091 1 0.16500 119244.000000
6753 13508 1 0.16500 119244.000000
6754 13091 1 0.16500 119244.000000
6754 13324 1 0.16500 119244.000000
6755 13091 1 0.16500 119244.000000
6755 13435 1 0.16500 119244.000000
6756 14409 1 0.16500 119244.000000
6756 22309 1 0.16500 119244.000000
6757 14250 1 0.16500 119244.000000
6757 22309 1 0.16500 119244.000000
6758 13092 1 0.16500 119244.000000
6758 15064 1 0.16500 119244.000000
6759 13093 1 0.16500 119244.000000
6759 13866 1 0.16500 119244.000000
6760 13093 1 0.16500 119244.000000
6760 15525 1 0.16500 119244.000000
6761 13093 1 0.16500 119244.000000
6761 13414 1 0.16500 119244.000000
6762 13321 1 0.16500 119244.000000
6762 15156 1 0.16500 119244.000000
6763 15138 1 0.16500 119244.000000
6763 15156 1 0.16500 119244.000000
6764 13094 1 0.16500 119244.000000
6764 16226 1 0.16500 119244.000000
6765 13358 1 0.16500 119244.000000
6765 14990 1 0.16500 119244.000000
6766 13095 1 0.16500 119244.000000
6766 15918 1 0.16500 119244.000000
6767 13095 1 0.16500 119244.000000
6767 14990 1 0.16500 119244.000000
6768 12141 1 0.16500 119244.000000
6768 13096 1 0.16500 119244.000000
6769 13096 1 0.16500 119244.000000
6769 13838 1 0.16500 119244.000000
6770 13096 1 0.16500 119244.000000
6770 14173 1 0.16500 119244.000000
6771 13097 1 0.16500 119244.000000
6771 15072 1 0.16500 119244.000000
6772 13097 1 0.16500 119244.000000
6772 15453 1 0.16500 119244.000000
6773 13097 1 0.16500 119244.000000
6773 15138 1 0.16500 119244.000000
6774 13098 1 0.16500 119244.000000
6774 14086 1 0.16500 119244.000000
6775 13098 1 0.16500 119244.000000
6775 15980 1 0.16500 119244.000000
6776 13098 1 0.16500 119244.000000
6776 16043 1 0.16500 119244.000000
6777 13099 1 0.16500 119244.000000
6777 14167 1 0.16500 119244.000000
6778 12968 1 0.16500 119244.000000
6778 16107 1 0.16500 119244.000000
6779 13099 1 0.16500 119244.000000
6779 14261 1 0.16500 119244.000000
6780 13963 1 0.16500 119244.000000
6780 15468 1 0.16500 119244.000000
6781 13100 1 0.16500 119244.000000
6781 13963 1 0.16500 119244.000000
6782 13100 1 0.16500 119244.000000
6782 15957 1 0.16500 119244.000000
6783 15539 1 0.16500 119244.000000
6783 20869 1 0.16500 119244.000000
6784 15557 1 0.16500 119244.000000
6784 20869 1 0.16500 119244.000000
6785 11877 1 0.16500 119244.000000
6785 15342 1 0.16500 119244.000000
6786 13101 1 0.16500 119244.000000
6786 14535 1 0.16500 119244.000000
6787 15342 1 0.16500 119244.000000
6787 16279 1 0.16500 119244.000000
6788 13102 1 0.16500 119244.000000
6788 13553 1 0.16500 119244.000000
6789 13102 1 0.16500 119244.000000
6789 13490 1 0.16500 119244.000000
6790 13102 1 0.16500 119244.000000
6790 14386 1 0.16500 119244.000000
6791 13103 1 0.16500 119244.000000
6791 13335 1 0.16500 119244.000000
6792 13103 1 0.16500 119244.000000
6792 14878 1 0.16500 119244.000000
6793 13103 1 0.16500 119244.000000
6793 14082 1 0.16500 119244.000000
6794 12166 1 0.16500 119244.000000
6794 14508 1 0.16500 119244.000000
6795 13104 1 0.16500 119244.000000
6795 15473 1 0.16500 119244.000000
6796 13105 1 0.16500 119244.000000
6796 16150 1 0.16500 119244.000000
6797 13105 1 0.16500 119244.000000
6797 14169 1 0.16500 119244.000000
6798 13106 1 0.16500 119244.000000
6798 14558 1 0.16500 119244.000000
6799 13106 1 0.16500 119244.000000
6799 15705 1 0.16500 119244.000000
6800 13106 1 0.16500 119244.000000
6800 13580 1 0.16500 119244.000000
6801 13107 1 0.16500 119244.000000
6801 15967 1 0.16500 119244.000000
6802 13107 1 0.16500 119244.000000
6802 13125 1 0.16500 119244.000000
6803 13107 1 0.16500 119244.000000
6803 15588 1 0.16500 119244.000000
6804 13108 1 0.16500 119244.000000
6804 16123 1 0.16500 119244.000000
6805 13108 1 0.16500 119244.000000
6805 15987 1 0.16500 119244.000000
6806 13108 1 0.16500 119244.000000
6806 15245 1 0.16500 119244.000000
6807 13109 1 0.16500 119244.000000
6807 15371 1 0.16500 119244.000000
6808 13109 1 0.16500 119244.000000
6808 13652 1 0.16500 119244.000000
6809 13109 1 0.16500 119244.000000
6809 16227 1 0.16500 119244.000000
6810 13222 1 0.16500 119244.000000
6810 20845 1 0.16500 119244.000000
6811 13111 1 0.16500 119244.000000
6811 16013 1 0.16500 119244.000000
6812 13112 1 0.16500 119244.000000
6812 15586 1 0.16500 119244.000000
6813 13113 1 0.16500 119244.000000
6813 14262 1 0.16500 119244.000000
6814 13113 1 0.16500 119244.000000
6814 14900 1 0.16500 119244.000000
6815 12516 1 0.16500 119244.000000
6815 13114 1 0.16500 119244.000000
6816 13114 1 0.16500 119244.000000
6816 15270 1 0.16500 119244.000000
6817 13115 1 0.16500 119244.000000
6817 14834 1 0.16500 119244.000000
6818 13115 1 0.16500 119244.000000
6818 15210 1 0.16500 119244.000000
6819 13116 1 0.16500 119244.000000
6819 14647 1 0.16500 119244.000000
6820 12792 1 0.16500 119244.000000
6820 13116 1 0.16500 119244.000000
6821 13116 1 0.16500 119244.000000
6821 15947 1 0.16500 119244.000000
6822 13024 1 0.16500 119244.000000
6822 13116 1 0.16500 119244.000000
6823 15983 1 0.16500 119244.000000
6823 19117 1 0.16500 119244.000000
6824 15842 1 0.16500 119244.000000
6824 19117 1 0.16500 119244.000000
6825 13118 1 0.16500 119244.000000
6825 14359 1 0.16500 119244.000000
6826 13118 1 0.16500 119244.000000
6826 15393 1 0.16500 119244.000000
6827 13118 1 0.16500 119244.000000
6827 23569 1 0.16500 119244.000000
6828 13119 1 0.16500 119244.000000
6828 15665 1 0.16500 119244.000000
6829 13119 1 0.16500 119244.000000
6829 16159 1 0.16500 119244.000000
6830 13119 1 0.16500 119244.000000
6830 15180 1 0.16500 119244.000000
6831 13120 1 0.16500 119244.000000
6831 13160 1 0.16500 119244.000000
6832 13120 1 0.16500 119244.000000
6832 13879 1 0.16500 119244.000000
6833 13121 1 0.16500 119244.000000
6833 15478 1 0.16500 119244.000000
6834 13121 1 0.16500 119244.000000
6834 13757 1 0.16500 119244.000000
6835 13122 1 0.16500 119244.000000
6835 16829 1 0.16500 119244.000000
6836 14330 1 0.16500 119244.000000
6836 18997 1 0.16500 119244.000000
6837 13122 1 0.16500 119244.000000
6837 14330 1 0.16500 119244.000000
6838 13123 1 0.16500 119244.000000
6838 16230 1 0.16500 119244.000000
6839 13123 1 0.16500 119244.000000
6839 14463 1 0.16500 119244.000000
6840 13124 1 0.16500 119244.000000
6840 14637 1 0.16500 119244.000000
6841 13125 1 0.16500 119244.000000
6841 14588 1 0.16500 119244.000000
6842 13125 1 0.16500 119244.000000
6842 14575 1 0.16500 119244.000000
6843 13126 1 0.16500 119244.000000
6843 24169 1 0.16500 119244.000000
6844 13126 1 0.16500 119244.000000
6844 13401 1 0.16500 119244.000000
6845 13127 1 0.16500 119244.000000
6845 14587 1 0.16500 119244.000000
6846 13127 1 0.16500 119244.000000
6846 14256 1 0.16500 119244.000000
6847 13127 1 0.16500 119244.000000
6847 15333 1 0.16500 119244.000000
6848 13127 1 0.16500 119244.000000
6848 15746 1 0.16500 119244.000000
6849 13128 1 0.16500 119244.000000
6849 15201 1 0.16500 119244.000000
6850 13128 1 0.16500 119244.000000
6850 14702 1 0.16500 119244.000000
6851 13128 1 0.16500 119244.000000
6851 13530 1 0.16500 119244.000000
6852 11441 1 0.16500 119244.000000
6852 13129 1 0.16500 119244.000000
6853 11810 1 0.16500 119244.000000
6853 13129 1 0.16500 119244.000000
6854 13130 1 0.16500 119244.000000
6854 15154 1 0.16500 119244.000000
6855 13130 1 0.16500 119244.000000
6855 15459 1 0.16500 119244.000000
6856 13131 1 0.16500 119244.000000
6856 15474 1 0.16500 119244.000000
6857 13131 1 0.16500 119244.000000
6857 14190 1 0.16500 119244.000000
6858 13131 1 0.16500 119244.000000
6858 15102 1 0.16500 119244.000000
6859 13131 1 0.16500 119244.000000
6859 15361 1 0.16500 119244.000000
6860 13132 1 0.16500 119244.000000
6860 15416 1 0.16500 119244.000000
6861 12232 1 0.16500 119244.000000
6861 16058 1 0.16500 119244.000000
6862 13132 1 0.16500 119244.000000
6862 14364 1 0.16500 119244.000000
6863 13133 1 0.16500 119244.000000
6863 15876 1 0.16500 119244.000000
6864 13134 1 0.16500 119244.000000
6864 15635 1 0.16500 119244.000000
6865 13134 1 0.16500 119244.000000
6865 14794 1 0.16500 119244.000000
6866 13134 1 0.16500 119244.000000
6866 15986 1 0.16500 119244.000000
6867 13918 1 0.16500 119244.000000
6867 16181 1 0.16500 119244.000000
6868 13135 1 0.16500 119244.000000
6868 19333 1 0.16500 119244.000000
6869 13135 1 0.16500 119244.000000
6869 13918 1 0.16500 119244.000000
6870 13136 1 0.16500 119244.000000
6870 14692 1 0.16500 119244.000000
6871 13136 1 0.16500 119244.000000
6871 14493 1 0.16500 119244.000000
6872 13137 1 0.16500 119244.000000
6872 15553 1 0.16500 119244.000000
6873 13137 1 0.16500 119244.000000
6873 14464 1 0.16500 119244.000000
6874 13137 1 0.16500 119244.000000
6874 15830 1 0.16500 119244.000000
6875 13138 1 0.16500 119244.000000
6875 14084 1 0.16500 119244.000000
6876 13138 1 0.16500 119244.000000
6876 13856 1 0.16500 119244.000000
6877 13138 1 0.16500 119244.000000
6877 15649 1 0.16500 119244.000000
6878 13139 1 0.16500 119244.000000
6878 14651 1 0.16500 119244.000000
6879 13139 1 0.16500 119244.000000
6879 15374 1 0.16500 119244.000000
6880 13140 1 0.16500 119244.000000
6880 16191 1 0.16500 119244.000000
6881 13140 1 0.16500 119244.000000
6881 14680 1 0.16500 119244.000000
6882 13140 1 0.16500 119244.000000
6882 13690 1 0.16500 119244.000000
6883 11915 1 0.16500 119244.000000
6883 13141 1 0.16500 119244.000000
6884 13141 1 0.16500 119244.000000
6884 14052 1 0.16500 119244.000000
6885 13142 1 0.16500 119244.000000
6885 15454 1 0.16500 119244.000000
6886 13142 1 0.16500 119244.000000
6886 15970 1 0.16500 119244.000000
6887 13143 1 0.16500 119244.000000
6887 13680 1 0.16500 119244.000000
6888 13144 1 0.16500 119244.000000
6888 13478 1 0.16500 119244.000000
6889 13145 1 0.16500 119244.000000
6889 20461 1 0.16500 119244.000000
6890 13145 1 0.16500 119244.000000
6890 13645 1 0.16500 119244.000000
6891 13146 1 0.16500 119244.000000
6891 15532 1 0.16500 119244.000000
6892 13146 1 0.16500 119244.000000
6892 17501 1 0.16500 119244.000000
6893 13147 1 0.16500 119244.000000
6893 13938 1 0.16500 119244.000000
6894 13147 1 0.16500 119244.000000
6894 14490 1 0.16500 119244.000000
6895 13148 1 0.16500 119244.000000
6895 14371 1 0.16500 119244.000000
6896 13148 1 0.16500 119244.000000
6896 15038 1 0.16500 119244.000000
6897 15038 1 0.16500 119244.000000
6897 15228 1 0.16500 119244.000000
6898 13148 1 0.16500 119244.000000
6898 15270 1 0.16500 119244.000000
6899 22417 1 0.16500 119244.000000
6899 23896 1 0.16500 119244.000000
6900 15370 1 0.16500 119244.000000
6900 23896 1 0.16500 119244.000000
6901 18285 1 0.16500 119244.000000
6901 18541 1 0.16500 119244.000000
6902 13149 1 0.16500 119244.000000
6902 14495 1 0.16500 119244.000000
6903 13149 1 0.16500 119244.000000
6903 13821 1 0.16500 119244.000000
6904 13149 1 0.16500 119244.000000
6904 14809 1 0.16500 119244.000000
6905 13150 1 0.16500 119244.000000
6905 13590 1 0.16500 119244.000000
6906 13151 1 0.16500 119244.000000
6906 13313 1 0.16500 119244.000000
6907 13151 1 0.16500 119244.000000
6907 15495 1 0.16500 119244.000000
6908 13151 1 0.16500 119244.000000
6908 15413 1 0.16500 119244.000000
6909 13151 1 0.16500 119244.000000
6909 18613 1 0.16500 119244.000000
6910 13152 1 0.16500 119244.000000
6910 13909 1 0.16500 119244.000000
6911 13153 1 0.16500 119244.000000
6911 14802 1 0.16500 119244.000000
6912 13153 1 0.16500 119244.000000
6912 13360 1 0.16500 119244.000000
6913 13154 1 0.16500 119244.000000
6913 24217 1 0.16500 119244.000000
6914 13154 1 0.16500 119244.000000
6914 14549 1 0.16500 119244.000000
6915 13154 1 0.16500 119244.000000
6915 16151 1 0.16500 119244.000000
6916 13358 1 0.16500 119244.000000
6916 23899 1 0.16500 119244.000000
6917 14376 1 0.16500 119244.000000
6917 23899 1 0.16500 119244.000000
6918 13155 1 0.16500 119244.000000
6918 14087 1 0.16500 119244.000000
6919 13155 1 0.16500 119244.000000
6919 14761 1 0.16500 119244.000000
6920 13155 1 0.16500 119244.000000
6920 14869 1 0.16500 119244.000000
6921 16034 1 0.16500 119244.000000
6921 16871 1 0.16500 119244.000000
6922 13156 1 0.16500 119244.000000
6922 13658 1 0.16500 119244.000000
6923 13156 1 0.16500 119244.000000
6923 14172 1 0.16500 119244.000000
6924 14172 1 0.16500 119244.000000
6924 21253 1 0.16500 119244.000000
6925 13157 1 0.16500 119244.000000
6925 13367 1 0.16500 119244.000000
6926 14672 1 0.16500 119244.000000
6926 18865 1 0.16500 119244.000000
6927 13158 1 0.16500 119244.000000
6927 14835 1 0.16500 119244.000000
6928 13158 1 0.16500 119244.000000
6928 24112 1 0.16500 119244.000000
6929 13158 1 0.16500 119244.000000
6929 15060 1 0.16500 119244.000000
6930 13159 1 0.16500 119244.000000
6930 13742 1 0.16500 119244.000000
6931 20593 1 0.16500 119244.000000
6931 23902 1 0.16500 119244.000000
6932 23902 1 0.16500 119244.000000
6932 23980 1 0.16500 119244.000000
6933 13160 1 0.16500 119244.000000
6933 13855 1 0.16500 119244.000000
6934 13160 1 0.16500 119244.000000
6934 15173 1 0.16500 119244.000000
6935 13161 1 0.16500 119244.000000
6935 13892 1 0.16500 119244.000000
6936 13161 1 0.16500 119244.000000
6936 14805 1 0.16500 119244.000000
6937 13161 1 0.16500 119244.000000
6937 15134 1 0.16500 119244.000000
6938 13162 1 0.16500 119244.000000
6938 15137 1 0.16500 119244.000000
6939 13162 1 0.16500 119244.000000
6939 24229 1 0.16500 119244.000000
6940 13162 1 0.16500 119244.000000
6940 13799 1 0.16500 119244.000000
6941 13163 1 0.16500 119244.000000
6941 15433 1 0.16500 119244.000000
6942 13163 1 0.16500 119244.000000
6942 15378 1 0.16500 119244.000000
6943 13163 1 0.16500 119244.000000
6943 13435 1 0.16500 119244.000000
6944 13164 1 0.16500 119244.000000
6944 15714 1 0.16500 119244.000000
6945 13164 1 0.16500 119244.000000
6945 14527 1 0.16500 119244.000000
6946 13165 1 0.16500 119244.000000
6946 13932 1 0.16500 119244.000000
6947 13165 1 0.16500 119244.000000
6947 15645 1 0.16500 119244.000000
6948 14207 1 0.16500 119244.000000
6948 14664 1 0.16500 119244.000000
6949 14664 1 0.16500 119244.000000
6949 14836 1 0.16500 119244.000000
6950 13166 1 0.16500 119244.000000
6950 14664 1 0.16500 119244.000000
6951 13167 1 0.16500 119244.000000
6951 15335 1 0.16500 119244.000000
6952 13167 1 0.16500 119244.000000
6952 13400 1 0.16500 119244.000000
6953 13167 1 0.16500 119244.000000
6953 15417 1 0.16500 119244.000000
6954 13167 1 0.16500 119244.000000
6954 15334 1 0.16500 119244.000000
6955 13168 1 0.16500 119244.000000
6955 16119 1 0.16500 119244.000000
6956 13168 1 0.16500 119244.000000
6956 14572 1 0.16500 119244.000000
6957 13168 1 0.16500 119244.000000
6957 13496 1 0.16500 119244.000000
6958 13169 1 0.16500 119244.000000
6958 15690 1 0.16500 119244.000000
6959 12282 1 0.16500 119244.000000
6959 16260 1 0.16500 119244.000000
6960 13170 1 0.16500 119244.000000
6960 14070 1 0.16500 119244.000000
6961 13145 1 0.16500 119244.000000
6961 23905 1 0.16500 119244.000000
6962 13171 1 0.16500 119244.000000
6962 14495 1 0.16500 119244.000000
6963 13171 1 0.16500 119244.000000
6963 13481 1 0.16500 119244.000000
6964 13481 1 0.16500 119244.000000
6964 14255 1 0.16500 119244.000000
6965 13397 1 0.16500 119244.000000
6965 14941 1 0.16500 119244.000000
6966 13172 1 0.16500 119244.000000
6966 14748 1 0.16500 119244.000000
6967 13172 1 0.16500 119244.000000
6967 14941 1 0.16500 119244.000000
6968 13173 1 0.16500 119244.000000
6968 14608 1 0.16500 119244.000000
6969 14608 1 0.16500 119244.000000
6969 15051 1 0.16500 119244.000000
6970 13174 1 0.16500 119244.000000
6970 14560 1 0.16500 119244.000000
6971 12171 1 0.16500 119244.000000
6971 13390 1 0.16500 119244.000000
6972 13175 1 0.16500 119244.000000
6972 14249 1 0.16500 119244.000000
6973 13175 1 0.16500 119244.000000
6973 14053 1 0.16500 119244.000000
6974 13175 1 0.16500 119244.000000
6974 15629 1 0.16500 119244.000000
6975 13176 1 0.16500 119244.000000
6975 15031 1 0.16500 119244.000000
6976 13176 1 0.16500 119244.000000
6976 14366 1 0.16500 119244.000000
6977 13176 1 0.16500 119244.000000
6977 13394 1 0.16500 119244.000000
6978 14469 1 0.16500 119244.000000
6978 23908 1 0.16500 119244.000000
6979 13177 1 0.16500 119244.000000
6979 15689 1 0.16500 119244.000000
6980 13177 1 0.16500 119244.000000
6980 14248 1 0.16500 119244.000000
6981 13177 1 0.16500 119244.000000
6981 15135 1 0.16500 119244.000000
6982 13178 1 0.16500 119244.000000
6982 14760 1 0.16500 119244.000000
6983 13178 1 0.16500 119244.000000
6983 14982 1 0.16500 119244.000000
6984 13179 1 0.16500 119244.000000
6984 14296 1 0.16500 119244.000000
6985 13179 1 0.16500 119244.000000
6985 15006 1 0.16500 119244.000000
6986 13179 1 0.16500 119244.000000
6986 13504 1 0.16500 119244.000000
6987 13180 1 0.16500 119244.000000
6987 24244 1 0.16500 119244.000000
6988 13180 1 0.16500 119244.000000
6988 23005 1 0.16500 119244.000000
6989 13181 1 0.16500 119244.000000
6989 13395 1 0.16500 119244.000000
6990 13181 1 0.16500 119244.000000
6990 14753 1 0.16500 119244.000000
6991 13182 1 0.16500 119244.000000
6991 15309 1 0.16500 119244.000000
6992 13182 1 0.16500 119244.000000
6992 15925 1 0.16500 119244.000000
6993 13183 1 0.16500 119244.000000
6993 15775 1 0.16500 119244.000000
6994 13183 1 0.16500 119244.000000
6994 16019 1 0.16500 119244.000000
6995 13184 1 0.16500 119244.000000
6995 13685 1 0.16500 119244.000000
6996 13184 1 0.16500 119244.000000
6996 14252 1 0.16500 119244.000000
6997 13185 1 0.16500 119244.000000
6997 23281 1 0.16500 119244.000000
6998 13186 1 0.16500 119244.000000
6998 13802 1 0.16500 119244.000000
6999 13186 1 0.16500 119244.000000
6999 13414 1 0.16500 119244.000000
7000 13187 1 0.16500 119244.000000
7000 15464 1 0.16500 119244.000000
7001 13620 1 0.16500 119244.000000
7001 22165 1 0.16500 119244.000000
7002 11415 1 0.16500 119244.000000
7002 13188 1 0.16500 119244.000000
7003 13189 1 0.16500 119244.000000
7003 15420 1 0.16500 119244.000000
7004 13189 1 0.16500 119244.000000
7004 15897 1 0.16500 119244.000000
7005 13189 1 0.16500 119244.000000
7005 15169 1 0.16500 119244.000000
7006 13190 1 0.16500 119244.000000
7006 15205 1 0.16500 119244.000000
7007 13191 1 0.16500 119244.000000
7007 14875 1 0.16500 119244.000000
7008 13191 1 0.16500 119244.000000
7008 20773 1 0.16500 119244.000000
7009 13191 1 0.16500 119244.000000
7009 14481 1 0.16500 119244.000000
7010 13192 1 0.16500 119244.000000
7010 14118 1 0.16500 119244.000000
7011 13192 1 0.16500 119244.000000
7011 15374 1 0.16500 119244.000000
7012 13192 1 0.16500 119244.000000
7012 14667 1 0.16500 119244.000000
7013 13193 1 0.16500 119244.000000
7013 14789 1 0.16500 119244.000000
7014 13193 1 0.16500 119244.000000
7014 14135 1 0.16500 119244.000000
7015 13193 1 0.16500 119244.000000
7015 15771 1 0.16500 119244.000000
7016 13193 1 0.16500 119244.000000
7016 15352 1 0.16500 119244.000000
7017 13194 1 0.16500 119244.000000
7017 15330 1 0.16500 119244.000000
7018 13194 1 0.16500 119244.000000
7018 16085 1 0.16500 119244.000000
7019 14403 1 0.16500 119244.000000
7019 19669 1 0.16500 119244.000000
7020 16409 1 0.16500 119244.000000
7020 19669 1 0.16500 119244.000000
7021 13195 1 0.16500 119244.000000
7021 15657 1 0.16500 119244.000000
7022 13195 1 0.16500 119244.000000
7022 13335 1 0.16500 119244.000000
7023 13195 1 0.16500 119244.000000
7023 16093 1 0.16500 119244.000000
7024 13196 1 0.16500 119244.000000
7024 15448 1 0.16500 119244.000000
7025 13196 1 0.16500 119244.000000
7025 13909 1 0.16500 119244.000000
7026 13196 1 0.16500 119244.000000
7026 15301 1 0.16500 119244.000000
7027 13196 1 0.16500 119244.000000
7027 15595 1 0.16500 119244.000000
7028 13197 1 0.16500 119244.000000
7028 13680 1 0.16500 119244.000000
7029 13197 1 0.16500 119244.000000
7029 14785 1 0.16500 119244.000000
7030 13197 1 0.16500 119244.000000
7030 16043 1 0.16500 119244.000000
7031 13197 1 0.16500 119244.000000
7031 13242 1 0.16500 119244.000000
7032 13198 1 0.16500 119244.000000
7032 15500 1 0.16500 119244.000000
7033 13198 1 0.16500 119244.000000
7033 15637 1 0.16500 119244.000000
7034 13198 1 0.16500 119244.000000
7034 14239 1 0.16500 119244.000000
7035 13199 1 0.16500 119244.000000
7035 13881 1 0.16500 119244.000000
7036 13199 1 0.16500 119244.000000
7036 14975 1 0.16500 119244.000000
7037 13199 1 0.16500 119244.000000
7037 24304 1 0.16500 119244.000000
7038 13200 1 0.16500 119244.000000
7038 15881 1 0.16500 119244.000000
7039 13200 1 0.16500 119244.000000
7039 14902 1 0.16500 119244.000000
7040 13200 1 0.16500 119244.000000
7040 14181 1 0.16500 119244.000000
7041 13200 1 0.16500 119244.000000
7041 15939 1 0.16500 119244.000000
7042 13201 1 0.16500 119244.000000
7042 15078 1 0.16500 119244.000000
7043 13201 1 0.16500 119244.000000
7043 14968 1 0.16500 119244.000000
7044 13202 1 0.16500 119244.000000
7044 14193 1 0.16500 119244.000000
7045 13202 1 0.16500 119244.000000
7045 14067 1 0.16500 119244.000000
7046 13202 1 0.16500 119244.000000
7046 14989 1 0.16500 119244.000000
7047 13203 1 0.16500 119244.000000
7047 15710 1 0.16500 119244.000000
7048 13203 1 0.16500 119244.000000
7048 13589 1 0.16500 119244.000000
7049 13203 1 0.16500 119244.000000
7049 14048 1 0.16500 119244.000000
7050 13203 1 0.16500 119244.000000
7050 14565 1 0.16500 119244.000000
7051 13204 1 0.16500 119244.000000
7051 14764 1 0.16500 119244.000000
7052 15748 1 0.16500 119244.000000
7052 22801 1 0.16500 119244.000000
7053 13205 1 0.16500 119244.000000
7053 14006 1 0.16500 119244.000000
7054 13205 1 0.16500 119244.000000
7054 13468 1 0.16500 119244.000000
7055 13206 1 0.16500 119244.000000
7055 16207 1 0.16500 119244.000000
7056 13207 1 0.16500 119244.000000
7056 16227 1 0.16500 119244.000000
7057 13207 1 0.16500 119244.000000
7057 14024 1 0.16500 119244.000000
7058 13208 1 0.16500 119244.000000
7058 13798 1 0.16500 119244.000000
7059 13208 1 0.16500 119244.000000
7059 13999 1 0.16500 119244.000000
7060 13208 1 0.16500 119244.000000
7060 15763 1 0.16500 119244.000000
7061 13209 1 0.16500 119244.000000
7061 14083 1 0.16500 119244.000000
7062 13209 1 0.16500 119244.000000
7062 14961 1 0.16500 119244.000000
7063 14083 1 0.16500 119244.000000
7063 15429 1 0.16500 119244.000000
7064 13209 1 0.16500 119244.000000
7064 16927 1 0.16500 119244.000000
7065 13210 1 0.16500 119244.000000
7065 15185 1 0.16500 119244.000000
7066 13210 1 0.16500 119244.000000
7066 20245 1 0.16500 119244.000000
7067 13211 1 0.16500 119244.000000
7067 14267 1 0.16500 119244.000000
7068 13211 1 0.16500 119244.000000
7068 15466 1 0.16500 119244.000000
7069 13211 1 0.16500 119244.000000
7069 14748 1 0.16500 119244.000000
7070 13211 1 0.16500 119244.000000
7070 14079 1 0.16500 119244.000000
7071 13212 1 0.16500 119244.000000
7071 15540 1 0.16500 119244.000000
7072 13212 1 0.16500 119244.000000
7072 16045 1 0.16500 119244.000000
7073 13212 1 0.16500 119244.000000
7073 24088 1 0.16500 119244.000000
7074 13213 1 0.16500 119244.000000
7074 14734 1 0.16500 119244.000000
7075 13213 1 0.16500 119244.000000
7075 13832 1 0.16500 119244.000000
7076 13213 1 0.16500 119244.000000
7076 15448 1 0.16500 119244.000000
7077 13214 1 0.16500 119244.000000
7077 14591 1 0.16500 119244.000000
7078 13214 1 0.16500 119244.000000
7078 15140 1 0.16500 119244.000000
7079 13215 1 0.16500 119244.000000
7079 15628 1 0.16500 119244.000000
7080 13215 1 0.16500 119244.000000
7080 14355 1 0.16500 119244.000000
7081 13215 1 0.16500 119244.000000
7081 15036 1 0.16500 119244.000000
7082 14355 1 0.16500 119244.000000
7082 15814 1 0.16500 119244.000000
7083 13216 1 0.16500 119244.000000
7083 14312 1 0.16500 119244.000000
7084 13216 1 0.16500 119244.000000
7084 13370 1 0.16500 119244.000000
7085 12226 1 0.16500 119244.000000
7085 13217 1 0.16500 119244.000000
7086 13217 1 0.16500 119244.000000
7086 14616 1 0.16500 119244.000000
7087 13218 1 0.16500 119244.000000
7087 14351 1 0.16500 119244.000000
7088 13218 1 0.16500 119244.000000
7088 13923 1 0.16500 119244.000000
7089 13218 1 0.16500 119244.000000
7089 14189 1 0.16500 119244.000000
7090 13219 1 0.16500 119244.000000
7090 15706 1 0.16500 119244.000000
7091 13332 1 0.16500 119244.000000
7091 15749 1 0.16500 119244.000000
7092 13219 1 0.16500 119244.000000
7092 15749 1 0.16500 119244.000000
7093 13219 1 0.16500 119244.000000
7093 13351 1 0.16500 119244.000000
7094 13220 1 0.16500 119244.000000
7094 20257 1 0.16500 119244.000000
7095 13221 1 0.16500 119244.000000
7095 15854 1 0.16500 119244.000000
7096 13221 1 0.16500 119244.000000
7096 15505 1 0.16500 119244.000000
7097 13221 1 0.16500 119244.000000
7097 15995 1 0.16500 119244.000000
7098 14359 1 0.16500 119244.000000
7098 19897 1 0.16500 119244.000000
7099 13222 1 0.16500 119244.000000
7099 21529 1 0.16500 119244.000000
7100 13222 1 0.16500 119244.000000
7100 14354 1 0.16500 119244.000000
7101 13223 1 0.16500 119244.000000
7101 14631 1 0.16500 119244.000000
7102 13223 1 0.16500 119244.000000
7102 14417 1 0.16500 119244.000000
7103 13224 1 0.16500 119244.000000
7103 13518 1 0.16500 119244.000000
7104 13224 1 0.16500 119244.000000
7104 13917 1 0.16500 119244.000000
7105 13225 1 0.16500 119244.000000
7105 15957 1 0.16500 119244.000000
7106 13225 1 0.16500 119244.000000
7106 14171 1 0.16500 119244.000000
7107 13225 1 0.16500 119244.000000
7107 14951 1 0.16500 119244.000000
7108 13226 1 0.16500 119244.000000
7108 15755 1 0.16500 119244.000000
7109 13226 1 0.16500 119244.000000
7109 14662 1 0.16500 119244.000000
7110 13226 1 0.16500 119244.000000
7110 14826 1 0.16500 119244.000000
7111 13226 1 0.16500 119244.000000
7111 15873 1 0.16500 119244.000000
7112 16251 1 0.16500 119244.000000
7112 23911 1 0.16500 119244.000000
7113 23089 1 0.16500 119244.000000
7113 23911 1 0.16500 119244.000000
7114 14663 1 0.16500 119244.000000
7114 23911 1 0.16500 119244.000000
7115 13227 1 0.16500 119244.000000
7115 14910 1 0.16500 119244.000000
7116 13227 1 0.16500 119244.000000
7116 15573 1 0.16500 119244.000000
7117 13227 1 0.16500 119244.000000
7117 15163 1 0.16500 119244.000000
7118 13228 1 0.16500 119244.000000
7118 14433 1 0.16500 119244.000000
7119 13228 1 0.16500 119244.000000
7119 14887 1 0.16500 119244.000000
7120 13228 1 0.16500 119244.000000
7120 14693 1 0.16500 119244.000000
7121 13229 1 0.16500 119244.000000
7121 15420 1 0.16500 119244.000000
7122 13229 1 0.16500 119244.000000
7122 13703 1 0.16500 119244.000000
7123 13229 1 0.16500 119244.000000
7123 13263 1 0.16500 119244.000000
7124 13230 1 0.16500 119244.000000
7124 14405 1 0.16500 119244.000000
7125 13230 1 0.16500 119244.000000
7125 15591 1 0.16500 119244.000000
7126 14405 1 0.16500 119244.000000
7126 23437 1 0.16500 119244.000000
7127 13231 1 0.16500 119244.000000
7127 15499 1 0.16500 119244.000000
7128 13231 1 0.16500 119244.000000
7128 13410 1 0.16500 119244.000000
7129 13231 1 0.16500 119244.000000
7129 13304 1 0.16500 119244.000000
7130 13231 1 0.16500 119244.000000
7130 15802 1 0.16500 119244.000000
7131 13232 1 0.16500 119244.000000
7131 15603 1 0.16500 119244.000000
7132 14515 1 0.16500 119244.000000
7132 15603 1 0.16500 119244.000000
7133 13233 1 0.16500 119244.000000
7133 14457 1 0.16500 119244.000000
7134 13233 1 0.16500 119244.000000
7134 16122 1 0.16500 119244.000000
7135 13234 1 0.16500 119244.000000
7135 13418 1 0.16500 119244.000000
7136 13234 1 0.16500 119244.000000
7136 13554 1 0.16500 119244.000000
7137 13234 1 0.16500 119244.000000
7137 15103 1 0.16500 119244.000000
7138 13235 1 0.16500 119244.000000
7138 14588 1 0.16500 119244.000000
7139 13235 1 0.16500 119244.000000
7139 14437 1 0.16500 119244.000000
7140 13235 1 0.16500 119244.000000
7140 15720 1 0.16500 119244.000000
7141 21517 1 0.16500 119244.000000
7141 23914 1 0.16500 119244.000000
7142 23914 1 0.16500 119244.000000
7142 23998 1 0.16500 119244.000000
7143 13236 1 0.16500 119244.000000
7143 13379 1 0.16500 119244.000000
7144 12647 1 0.16500 119244.000000
7144 14153 1 0.16500 119244.000000
7145 13236 1 0.16500 119244.000000
7145 14796 1 0.16500 119244.000000
7146 13237 1 0.16500 119244.000000
7146 14437 1 0.16500 119244.000000
7147 13237 1 0.16500 119244.000000
7147 15574 1 0.16500 119244.000000
7148 13237 1 0.16500 119244.000000
7148 15694 1 0.16500 119244.000000
7149 13238 1 0.16500 119244.000000
7149 14688 1 0.16500 119244.000000
7150 13238 1 0.16500 119244.000000
7150 16125 1 0.16500 119244.000000
7151 13238 1 0.16500 119244.000000
7151 13302 1 0.16500 119244.000000
7152 13239 1 0.16500 119244.000000
7152 14824 1 0.16500 119244.000000
7153 13767 1 0.16500 119244.000000
7153 23341 1 0.16500 119244.000000
7154 16049 1 0.16500 119244.000000
7154 23341 1 0.16500 119244.000000
7155 13240 1 0.16500 119244.000000
7155 15746 1 0.16500 119244.000000
7156 13240 1 0.16500 119244.000000
7156 14976 1 0.16500 119244.000000
7157 13240 1 0.16500 119244.000000
7157 15451 1 0.16500 119244.000000
7158 13241 1 0.16500 119244.000000
7158 14229 1 0.16500 119244.000000
7159 13241 1 0.16500 119244.000000
7159 13970 1 0.16500 119244.000000
7160 13241 1 0.16500 119244.000000
7160 15711 1 0.16500 119244.000000
7161 13241 1 0.16500 119244.000000
7161 15016 1 0.16500 119244.000000
7162 13242 1 0.16500 119244.000000
7162 13532 1 0.16500 119244.000000
7163 13242 1 0.16500 119244.000000
7163 15705 1 0.16500 119244.000000
7164 13243 1 0.16500 119244.000000
7164 15629 1 0.16500 119244.000000
7165 13243 1 0.16500 119244.000000
7165 14213 1 0.16500 119244.000000
7166 13243 1 0.16500 119244.000000
7166 14142 1 0.16500 119244.000000
7167 13244 1 0.16500 119244.000000
7167 14654 1 0.16500 119244.000000
7168 14367 1 0.16500 119244.000000
7168 19381 1 0.16500 119244.000000
7169 13500 1 0.16500 119244.000000
7169 19381 1 0.16500 119244.000000
7170 19381 1 0.16500 119244.000000
7170 23209 1 0.16500 119244.000000
7171 15188 1 0.16500 119244.000000
7171 24392 1 0.16500 119244.000000
7172 13245 1 0.16500 119244.000000
7172 15155 1 0.16500 119244.000000
7173 13245 1 0.16500 119244.000000
7173 13525 1 0.16500 119244.000000
7174 13245 1 0.16500 119244.000000
7174 15519 1 0.16500 119244.000000
7175 13246 1 0.16500 119244.000000
7175 16165 1 0.16500 119244.000000
7176 13246 1 0.16500 119244.000000
7176 14589 1 0.16500 119244.000000
7177 11720 1 0.16500 119244.000000
7177 13246 1 0.16500 119244.000000
7178 13247 1 0.16500 119244.000000
7178 13509 1 0.16500 119244.000000
7179 13247 1 0.16500 119244.000000
7179 15241 1 0.16500 119244.000000
7180 19825 1 0.16500 119244.000000
7180 22141 1 0.16500 119244.000000
7181 13248 1 0.16500 119244.000000
7181 13356 1 0.16500 119244.000000
7182 13248 1 0.16500 119244.000000
7182 13596 1 0.16500 119244.000000
7183 13249 1 0.16500 119244.000000
7183 15489 1 0.16500 119244.000000
7184 13250 1 0.16500 119244.000000
7184 14701 1 0.16500 119244.000000
7185 13250 1 0.16500 119244.000000
7185 13792 1 0.16500 119244.000000
7186 13251 1 0.16500 119244.000000
7186 13507 1 0.16500 119244.000000
7187 13251 1 0.16500 119244.000000
7187 15343 1 0.16500 119244.000000
7188 13251 1 0.16500 119244.000000
7188 13621 1 0.16500 119244.000000
7189 13251 1 0.16500 119244.000000
7189 13421 1 0.16500 119244.000000
7190 13252 1 0.16500 119244.000000
7190 15883 1 0.16500 119244.000000
7191 13252 1 0.16500 119244.000000
7191 13683 1 0.16500 119244.000000
7192 13252 1 0.16500 119244.000000
7192 15993 1 0.16500 119244.000000
7193 13252 1 0.16500 119244.000000
7193 13279 1 0.16500 119244.000000
7194 12777 1 0.16500 119244.000000
7194 13253 1 0.16500 119244.000000
7195 13253 1 0.16500 119244.000000
7195 15492 1 0.16500 119244.000000
7196 13255 1 0.16500 119244.000000
7196 14364 1 0.16500 119244.000000
7197 13255 1 0.16500 119244.000000
7197 15949 1 0.16500 119244.000000
7198 21733 1 0.16500 119244.000000
7198 22933 1 0.16500 119244.000000
7199 13256 1 0.16500 119244.000000
7199 15646 1 0.16500 119244.000000
7200 13256 1 0.16500 119244.000000
7200 23245 1 0.16500 119244.000000
7201 13257 1 0.16500 119244.000000
7201 13537 1 0.16500 119244.000000
7202 13257 1 0.16500 119244.000000
7202 14102 1 0.16500 119244.000000
7203 13258 1 0.16500 119244.000000
7203 15278 1 0.16500 119244.000000
7204 13258 1 0.16500 119244.000000
7204 14403 1 0.16500 119244.000000
7205 13259 1 0.16500 119244.000000
7205 14757 1 0.16500 119244.000000
7206 13259 1 0.16500 119244.000000
7206 14119 1 0.16500 119244.000000
7207 13260 1 0.16500 119244.000000
7207 15319 1 0.16500 119244.000000
7208 13260 1 0.16500 119244.000000
7208 13584 1 0.16500 119244.000000
7209 13261 1 0.16500 119244.000000
7209 21001 1 0.16500 119244.000000
7210 13263 1 0.16500 119244.000000
7210 15210 1 0.16500 119244.000000
7211 13263 1 0.16500 119244.000000
7211 15794 1 0.16500 119244.000000
7212 13263 1 0.16500 119244.000000
7212 13451 1 0.16500 119244.000000
7213 13264 1 0.16500 119244.000000
7213 13662 1 0.16500 119244.000000
7214 13265 1 0.16500 119244.000000
7214 14002 1 0.16500 119244.000000
7215 13265 1 0.16500 119244.000000
7215 13907 1 0.16500 119244.000000
7216 14002 1 0.16500 119244.000000
7216 15999 1 0.16500 119244.000000
7217 13266 1 0.16500 119244.000000
7217 13744 1 0.16500 119244.000000
7218 13267 1 0.16500 119244.000000
7218 22777 1 0.16500 119244.000000
7219 13267 1 0.16500 119244.000000
7219 19417 1 0.16500 119244.000000
7220 13267 1 0.16500 119244.000000
7220 15359 1 0.16500 119244.000000
7221 13267 1 0.16500 119244.000000
7221 15396 1 0.16500 119244.000000
7222 15591 1 0.16500 119244.000000
7222 23917 1 0.16500 119244.000000
7223 13293 1 0.16500 119244.000000
7223 23917 1 0.16500 119244.000000
7224 13962 1 0.16500 119244.000000
7224 14038 1 0.16500 119244.000000
7225 13268 1 0.16500 119244.000000
7225 14038 1 0.16500 119244.000000
7226 13268 1 0.16500 119244.000000
7226 16089 1 0.16500 119244.000000
7227 13269 1 0.16500 119244.000000
7227 14169 1 0.16500 119244.000000
7228 13270 1 0.16500 119244.000000
7228 15608 1 0.16500 119244.000000
7229 13270 1 0.16500 119244.000000
7229 15971 1 0.16500 119244.000000
7230 13270 1 0.16500 119244.000000
7230 14547 1 0.16500 119244.000000
7231 13270 1 0.16500 119244.000000
7231 13304 1 0.16500 119244.000000
7232 13271 1 0.16500 119244.000000
7232 21685 1 0.16500 119244.000000
7233 12973 1 0.16500 119244.000000
7233 13271 1 0.16500 119244.000000
7234 13271 1 0.16500 119244.000000
7234 14319 1 0.16500 119244.000000
7235 13272 1 0.16500 119244.000000
7235 14179 1 0.16500 119244.000000
7236 13272 1 0.16500 119244.000000
7236 14548 1 0.16500 119244.000000
7237 14685 1 0.16500 119244.000000
7237 15675 1 0.16500 119244.000000
7238 13273 1 0.16500 119244.000000
7238 14474 1 0.16500 119244.000000
7239 13273 1 0.16500 119244.000000
7239 13568 1 0.16500 119244.000000
7240 15804 1 0.16500 119244.000000
7240 16210 1 0.16500 119244.000000
7241 13274 1 0.16500 119244.000000
7241 15804 1 0.16500 119244.000000
7242 13274 1 0.16500 119244.000000
7242 16241 1 0.16500 119244.000000
7243 13275 1 0.16500 119244.000000
7243 14342 1 0.16500 119244.000000
7244 13275 1 0.16500 119244.000000
7244 15927 1 0.16500 119244.000000
7245 13276 1 0.16500 119244.000000
7245 16009 1 0.16500 119244.000000
7246 13276 1 0.16500 119244.000000
7246 14138 1 0.16500 119244.000000
7247 13277 1 0.16500 119244.000000
7247 13328 1 0.16500 119244.000000
7248 13277 1 0.16500 119244.000000
7248 14930 1 0.16500 119244.000000
7249 13277 1 0.16500 119244.000000
7249 13351 1 0.16500 119244.000000
7250 13277 1 0.16500 119244.000000
7250 23401 1 0.16500 119244.000000
7251 13278 1 0.16500 119244.000000
7251 13858 1 0.16500 119244.000000
7252 13649 1 0.16500 119244.000000
7252 13858 1 0.16500 119244.000000
7253 13279 1 0.16500 119244.000000
7253 13345 1 0.16500 119244.000000
7254 13280 1 0.16500 119244.000000
7254 13631 1 0.16500 119244.000000
7255 13281 1 0.16500 119244.000000
7255 13760 1 0.16500 119244.000000
7256 13281 1 0.16500 119244.000000
7256 13474 1 0.16500 119244.000000
7257 18457 1 0.16500 119244.000000
7257 21553 1 0.16500 119244.000000
7258 13282 1 0.16500 119244.000000
7258 16169 1 0.16500 119244.000000
7259 13282 1 0.16500 119244.000000
7259 15543 1 0.16500 119244.000000
7260 13283 1 0.16500 119244.000000
7260 14414 1 0.16500 119244.000000
7261 13283 1 0.16500 119244.000000
7261 15107 1 0.16500 119244.000000
7262 14513 1 0.16500 119244.000000
7262 23920 1 0.16500 119244.000000
7263 15697 1 0.16500 119244.000000
7263 23920 1 0.16500 119244.000000
7264 15562 1 0.16500 119244.000000
7264 23920 1 0.16500 119244.000000
7265 11873 1 0.16500 119244.000000
7265 13284 1 0.16500 119244.000000
7266 13284 1 0.16500 119244.000000
7266 14039 1 0.16500 119244.000000
7267 13285 1 0.16500 119244.000000
7267 14862 1 0.16500 119244.000000
7268 13292 1 0.16500 119244.000000
7268 21625 1 0.16500 119244.000000
7269 14093 1 0.16500 119244.000000
7269 14952 1 0.16500 119244.000000
7270 13287 1 0.16500 119244.000000
7270 14952 1 0.16500 119244.000000
7271 13288 1 0.16500 119244.000000
7271 13370 1 0.16500 119244.000000
7272 13288 1 0.16500 119244.000000
7272 15082 1 0.16500 119244.000000
7273 13288 1 0.16500 119244.000000
7273 14328 1 0.16500 119244.000000
7274 13288 1 0.16500 119244.000000
7274 15149 1 0.16500 119244.000000
7275 13289 1 0.16500 119244.000000
7275 14115 1 0.16500 119244.000000
7276 13289 1 0.16500 119244.000000
7276 15465 1 0.16500 119244.000000
7277 14248 1 0.16500 119244.000000
7277 15757 1 0.16500 119244.000000
7278 13290 1 0.16500 119244.000000
7278 18601 1 0.16500 119244.000000
7279 13290 1 0.16500 119244.000000
7279 15757 1 0.16500 119244.000000
7280 13290 1 0.16500 119244.000000
7280 16003 1 0.16500 119244.000000
7281 13291 1 0.16500 119244.000000
7281 15144 1 0.16500 119244.000000
7282 14793 1 0.16500 119244.000000
7282 15144 1 0.16500 119244.000000
7283 12883 1 0.16500 119244.000000
7283 13311 1 0.16500 119244.000000
7284 13292 1 0.16500 119244.000000
7284 13318 1 0.16500 119244.000000
7285 13292 1 0.16500 119244.000000
7285 21577 1 0.16500 119244.000000
7286 13292 1 0.16500 119244.000000
7286 17949 1 0.16500 119244.000000
7287 13293 1 0.16500 119244.000000
7287 19957 1 0.16500 119244.000000
7288 19957 1 0.16500 119244.000000
7288 21385 1 0.16500 119244.000000
7289 13294 1 0.16500 119244.000000
7289 15435 1 0.16500 119244.000000
7290 13294 1 0.16500 119244.000000
7290 14865 1 0.16500 119244.000000
7291 15435 1 0.16500 119244.000000
7291 19621 1 0.16500 119244.000000
7292 13295 1 0.16500 119244.000000
7292 14186 1 0.16500 119244.000000
7293 13295 1 0.16500 119244.000000
7293 15261 1 0.16500 119244.000000
7294 13295 1 0.16500 119244.000000
7294 15780 1 0.16500 119244.000000
7295 13296 1 0.16500 119244.000000
7295 14277 1 0.16500 119244.000000
7296 13296 1 0.16500 119244.000000
7296 14480 1 0.16500 119244.000000
7297 13296 1 0.16500 119244.000000
7297 13896 1 0.16500 119244.000000
7298 13298 1 0.16500 119244.000000
7298 13810 1 0.16500 119244.000000
7299 13298 1 0.16500 119244.000000
7299 14562 1 0.16500 119244.000000
7300 13298 1 0.16500 119244.000000
7300 15860 1 0.16500 119244.000000
7301 19597 1 0.16500 119244.000000
7301 23245 1 0.16500 119244.000000
7302 18201 1 0.16500 119244.000000
7302 19597 1 0.16500 119244.000000
7303 13299 1 0.16500 119244.000000
7303 14953 1 0.16500 119244.000000
7304 13299 1 0.16500 119244.000000
7304 16210 1 0.16500 119244.000000
7305 13299 1 0.16500 119244.000000
7305 14767 1 0.16500 119244.000000
7306 13300 1 0.16500 119244.000000
7306 15036 1 0.16500 119244.000000
7307 13300 1 0.16500 119244.000000
7307 13669 1 0.16500 119244.000000
7308 12959 1 0.16500 119244.000000
7308 13300 1 0.16500 119244.000000
7309 13301 1 0.16500 119244.000000
7309 20305 1 0.16500 119244.000000
7310 13301 1 0.16500 119244.000000
7310 13355 1 0.16500 119244.000000
7311 13301 1 0.16500 119244.000000
7311 16563 1 0.16500 119244.000000
7312 13301 1 0.16500 119244.000000
7312 15142 1 0.16500 119244.000000
7313 13302 1 0.16500 119244.000000
7313 14915 1 0.16500 119244.000000
7314 13302 1 0.16500 119244.000000
7314 14925 1 0.16500 119244.000000
7315 13303 1 0.16500 119244.000000
7315 14606 1 0.16500 119244.000000
7316 13303 1 0.16500 119244.000000
7316 15064 1 0.16500 119244.000000
7317 13305 1 0.16500 119244.000000
7317 13695 1 0.16500 119244.000000
7318 13305 1 0.16500 119244.000000
7318 15732 1 0.16500 119244.000000
7319 11571 1 0.16500 119244.000000
7319 15777 1 0.16500 119244.000000
7320 11571 1 0.16500 119244.000000
7320 14224 1 0.16500 119244.000000
7321 13307 1 0.16500 119244.000000
7321 13666 1 0.16500 119244.000000
7322 13307 1 0.16500 119244.000000
7322 16097 1 0.16500 119244.000000
7323 13308 1 0.16500 119244.000000
7323 15253 1 0.16500 119244.000000
7324 13308 1 0.16500 119244.000000
7324 15244 1 0.16500 119244.000000
7325 13990 1 0.16500 119244.000000
7325 15253 1 0.16500 119244.000000
7326 13499 1 0.16500 119244.000000
7326 15095 1 0.16500 119244.000000
7327 13310 1 0.16500 119244.000000
7327 14240 1 0.16500 119244.000000
7328 13310 1 0.16500 119244.000000
7328 13499 1 0.16500 119244.000000
7329 13311 1 0.16500 119244.000000
7329 15342 1 0.16500 119244.000000
7330 13312 1 0.16500 119244.000000
7330 14731 1 0.16500 119244.000000
7331 13313 1 0.16500 119244.000000
7331 16272 1 0.16500 119244.000000
7332 13313 1 0.16500 119244.000000
7332 14304 1 0.16500 119244.000000
7333 13313 1 0.16500 119244.000000
7333 14202 1 0.16500 119244.000000
7334 13314 1 0.16500 119244.000000
7334 14126 1 0.16500 119244.000000
7335 13314 1 0.16500 119244.000000
7335 15722 1 0.16500 119244.000000
7336 13314 1 0.16500 119244.000000
7336 16116 1 0.16500 119244.000000
7337 13314 1 0.16500 119244.000000
7337 15140 1 0.16500 119244.000000
7338 13315 1 0.16500 119244.000000
7338 15990 1 0.16500 119244.000000
7339 13315 1 0.16500 119244.000000
7339 14227 1 0.16500 119244.000000
7340 13315 1 0.16500 119244.000000
7340 14786 1 0.16500 119244.000000
7341 16213 1 0.16500 119244.000000
7341 19069 1 0.16500 119244.000000
7342 13316 1 0.16500 119244.000000
7342 19069 1 0.16500 119244.000000
7343 13316 1 0.16500 119244.000000
7343 24202 1 0.16500 119244.000000
7344 13316 1 0.16500 119244.000000
7344 15191 1 0.16500 119244.000000
7345 13317 1 0.16500 119244.000000
7345 15657 1 0.16500 119244.000000
7346 13317 1 0.16500 119244.000000
7346 14462 1 0.16500 119244.000000
7347 13317 1 0.16500 119244.000000
7347 16174 1 0.16500 119244.000000
7348 13318 1 0.16500 119244.000000
7348 16237 1 0.16500 119244.000000
7349 13318 1 0.16500 119244.000000
7349 16187 1 0.16500 119244.000000
7350 13318 1 0.16500 119244.000000
7350 15747 1 0.16500 119244.000000
7351 13319 1 0.16500 119244.000000
7351 13422 1 0.16500 119244.000000
7352 13319 1 0.16500 119244.000000
7352 14184 1 0.16500 119244.000000
7353 13319 1 0.16500 119244.000000
7353 16215 1 0.16500 119244.000000
7354 13320 1 0.16500 119244.000000
7354 14892 1 0.16500 119244.000000
7355 13320 1 0.16500 119244.000000
7355 15406 1 0.16500 119244.000000
7356 13320 1 0.16500 119244.000000
7356 14053 1 0.16500 119244.000000
7357 13321 1 0.16500 119244.000000
7357 15862 1 0.16500 119244.000000
7358 13094 1 0.16500 119244.000000
7358 14545 1 0.16500 119244.000000
7359 13094 1 0.16500 119244.000000
7359 13321 1 0.16500 119244.000000
7360 13322 1 0.16500 119244.000000
7360 16038 1 0.16500 119244.000000
7361 13322 1 0.16500 119244.000000
7361 14557 1 0.16500 119244.000000
7362 13322 1 0.16500 119244.000000
7362 15743 1 0.16500 119244.000000
7363 13323 1 0.16500 119244.000000
7363 17249 1 0.16500 119244.000000
7364 13323 1 0.16500 119244.000000
7364 23956 1 0.16500 119244.000000
7365 13323 1 0.16500 119244.000000
7365 14859 1 0.16500 119244.000000
7366 13324 1 0.16500 119244.000000
7366 15303 1 0.16500 119244.000000
7367 13325 1 0.16500 119244.000000
7367 13494 1 0.16500 119244.000000
7368 11288 1 0.16500 119244.000000
7368 16029 1 0.16500 119244.000000
7369 14009 1 0.16500 119244.000000
7369 23113 1 0.16500 119244.000000
7370 13326 1 0.16500 119244.000000
7370 13713 1 0.16500 119244.000000
7371 11522 1 0.16500 119244.000000
7371 14292 1 0.16500 119244.000000
7372 13326 1 0.16500 119244.000000
7372 15627 1 0.16500 119244.000000
7373 11535 1 0.16500 119244.000000
7373 13101 1 0.16500 119244.000000
7374 13327 1 0.16500 119244.000000
7374 14405 1 0.16500 119244.000000
7375 14081 1 0.16500 119244.000000
7375 23926 1 0.16500 119244.000000
7376 20617 1 0.16500 119244.000000
7376 23926 1 0.16500 119244.000000
7377 13329 1 0.16500 119244.000000
7377 15208 1 0.16500 119244.000000
7378 13329 1 0.16500 119244.000000
7378 16146 1 0.16500 119244.000000
7379 13329 1 0.16500 119244.000000
7379 13679 1 0.16500 119244.000000
7380 13329 1 0.16500 119244.000000
7380 15002 1 0.16500 119244.000000
7381 13330 1 0.16500 119244.000000
7381 14096 1 0.16500 119244.000000
7382 13330 1 0.16500 119244.000000
7382 16117 1 0.16500 119244.000000
7383 13331 1 0.16500 119244.000000
7383 15328 1 0.16500 119244.000000
7384 13333 1 0.16500 119244.000000
7384 14292 1 0.16500 119244.000000
7385 13333 1 0.16500 119244.000000
7385 14993 1 0.16500 119244.000000
7386 13333 1 0.16500 119244.000000
7386 13521 1 0.16500 119244.000000
7387 13333 1 0.16500 119244.000000
7387 15395 1 0.16500 119244.000000
7388 13334 1 0.16500 119244.000000
7388 15821 1 0.16500 119244.000000
7389 13334 1 0.16500 119244.000000
7389 13651 1 0.16500 119244.000000
7390 13335 1 0.16500 119244.000000
7390 15662 1 0.16500 119244.000000
7391 13335 1 0.16500 119244.000000
7391 14749 1 0.16500 119244.000000
7392 13336 1 0.16500 119244.000000
7392 14203 1 0.16500 119244.000000
7393 13336 1 0.16500 119244.000000
7393 14275 1 0.16500 119244.000000
7394 13337 1 0.16500 119244.000000
7394 13898 1 0.16500 119244.000000
7395 13337 1 0.16500 119244.000000
7395 14632 1 0.16500 119244.000000
7396 13337 1 0.16500 119244.000000
7396 15393 1 0.16500 119244.000000
7397 13338 1 0.16500 119244.000000
7397 13798 1 0.16500 119244.000000
7398 13338 1 0.16500 119244.000000
7398 13441 1 0.16500 119244.000000
7399 16955 1 0.16500 119244.000000
7399 21013 1 0.16500 119244.000000
7400 16240 1 0.16500 119244.000000
7400 16955 1 0.16500 119244.000000
7401 13339 1 0.16500 119244.000000
7401 14539 1 0.16500 119244.000000
7402 13339 1 0.16500 119244.000000
7402 13991 1 0.16500 119244.000000
7403 13339 1 0.16500 119244.000000
7403 13409 1 0.16500 119244.000000
7404 13339 1 0.16500 119244.000000
7404 15260 1 0.16500 119244.000000
7405 13340 1 0.16500 119244.000000
7405 15844 1 0.16500 119244.000000
7406 13340 1 0.16500 119244.000000
7406 13894 1 0.16500 119244.000000
7407 13340 1 0.16500 119244.000000
7407 15551 1 0.16500 119244.000000
7408 13341 1 0.16500 119244.000000
7408 15470 1 0.16500 119244.000000
7409 12238 1 0.16500 119244.000000
7409 13349 1 0.16500 119244.000000
7410 14254 1 0.16500 119244.000000
7410 15470 1 0.16500 119244.000000
7411 13342 1 0.16500 119244.000000
7411 15766 1 0.16500 119244.000000
7412 13342 1 0.16500 119244.000000
7412 13965 1 0.16500 119244.000000
7413 13342 1 0.16500 119244.000000
7413 14604 1 0.16500 119244.000000
7414 13343 1 0.16500 119244.000000
7414 13945 1 0.16500 119244.000000
7415 13344 1 0.16500 119244.000000
7415 14218 1 0.16500 119244.000000
7416 13344 1 0.16500 119244.000000
7416 14483 1 0.16500 119244.000000
7417 13345 1 0.16500 119244.000000
7417 15758 1 0.16500 119244.000000
7418 12662 1 0.16500 119244.000000
7418 13346 1 0.16500 119244.000000
7419 13346 1 0.16500 119244.000000
7419 13638 1 0.16500 119244.000000
7420 13346 1 0.16500 119244.000000
7420 14125 1 0.16500 119244.000000
7421 13347 1 0.16500 119244.000000
7421 15330 1 0.16500 119244.000000
7422 13347 1 0.16500 119244.000000
7422 13612 1 0.16500 119244.000000
7423 13348 1 0.16500 119244.000000
7423 15602 1 0.16500 119244.000000
7424 13349 1 0.16500 119244.000000
7424 14770 1 0.16500 119244.000000
7425 13349 1 0.16500 119244.000000
7425 16230 1 0.16500 119244.000000
7426 13349 1 0.16500 119244.000000
7426 13558 1 0.16500 119244.000000
7427 13350 1 0.16500 119244.000000
7427 16759 1 0.16500 119244.000000
7428 13350 1 0.16500 119244.000000
7428 13774 1 0.16500 119244.000000
7429 13350 1 0.16500 119244.000000
7429 15214 1 0.16500 119244.000000
7430 13351 1 0.16500 119244.000000
7430 15132 1 0.16500 119244.000000
7431 11966 1 0.16500 119244.000000
7431 15078 1 0.16500 119244.000000
7432 13351 1 0.16500 119244.000000
7432 15078 1 0.16500 119244.000000
7433 13352 1 0.16500 119244.000000
7433 14191 1 0.16500 119244.000000
7434 13353 1 0.16500 119244.000000
7434 15207 1 0.16500 119244.000000
7435 13353 1 0.16500 119244.000000
7435 15571 1 0.16500 119244.000000
7436 13353 1 0.16500 119244.000000
7436 13386 1 0.16500 119244.000000
7437 13354 1 0.16500 119244.000000
7437 15299 1 0.16500 119244.000000
7438 13354 1 0.16500 119244.000000
7438 14923 1 0.16500 119244.000000
7439 13354 1 0.16500 119244.000000
7439 16170 1 0.16500 119244.000000
7440 13355 1 0.16500 119244.000000
7440 19993 1 0.16500 119244.000000
7441 13355 1 0.16500 119244.000000
7441 18829 1 0.16500 119244.000000
7442 13356 1 0.16500 119244.000000
7442 15965 1 0.16500 119244.000000
7443 13357 1 0.16500 119244.000000
7443 14850 1 0.16500 119244.000000
7444 13357 1 0.16500 119244.000000
7444 14329 1 0.16500 119244.000000
7445 13357 1 0.16500 119244.000000
7445 14297 1 0.16500 119244.000000
7446 13095 1 0.16500 119244.000000
7446 14689 1 0.16500 119244.000000
7447 13359 1 0.16500 119244.000000
7447 16180 1 0.16500 119244.000000
7448 13359 1 0.16500 119244.000000
7448 14227 1 0.16500 119244.000000
7449 13360 1 0.16500 119244.000000
7449 14017 1 0.16500 119244.000000
7450 13360 1 0.16500 119244.000000
7450 13966 1 0.16500 119244.000000
7451 12482 1 0.16500 119244.000000
7451 13738 1 0.16500 119244.000000
7452 13361 1 0.16500 119244.000000
7452 13633 1 0.16500 119244.000000
7453 13361 1 0.16500 119244.000000
7453 13503 1 0.16500 119244.000000
7454 13362 1 0.16500 119244.000000
7454 16267 1 0.16500 119244.000000
7455 13362 1 0.16500 119244.000000
7455 15007 1 0.16500 119244.000000
7456 13362 1 0.16500 119244.000000
7456 14316 1 0.16500 119244.000000
7457 13363 1 0.16500 119244.000000
7457 22573 1 0.16500 119244.000000
7458 13363 1 0.16500 119244.000000
7458 15485 1 0.16500 119244.000000
7459 13364 1 0.16500 119244.000000
7459 15370 1 0.16500 119244.000000
7460 13364 1 0.16500 119244.000000
7460 14392 1 0.16500 119244.000000
7461 13364 1 0.16500 119244.000000
7461 15477 1 0.16500 119244.000000
7462 13365 1 0.16500 119244.000000
7462 14480 1 0.16500 119244.000000
7463 13365 1 0.16500 119244.000000
7463 16011 1 0.16500 119244.000000
7464 13366 1 0.16500 119244.000000
7464 15927 1 0.16500 119244.000000
7465 13366 1 0.16500 119244.000000
7465 13748 1 0.16500 119244.000000
7466 13366 1 0.16500 119244.000000
7466 14908 1 0.16500 119244.000000
7467 13367 1 0.16500 119244.000000
7467 13842 1 0.16500 119244.000000
7468 13367 1 0.16500 119244.000000
7468 14327 1 0.16500 119244.000000
7469 13258 1 0.16500 119244.000000
7469 13368 1 0.16500 119244.000000
7470 13970 1 0.16500 119244.000000
7470 20245 1 0.16500 119244.000000
7471 13369 1 0.16500 119244.000000
7471 15904 1 0.16500 119244.000000
7472 15768 1 0.16500 119244.000000
7472 20521 1 0.16500 119244.000000
7473 13370 1 0.16500 119244.000000
7473 15762 1 0.16500 119244.000000
7474 13371 1 0.16500 119244.000000
7474 14530 1 0.16500 119244.000000
7475 13371 1 0.16500 119244.000000
7475 14898 1 0.16500 119244.000000
7476 13371 1 0.16500 119244.000000
7476 14759 1 0.16500 119244.000000
7477 13044 1 0.16500 119244.000000
7477 13371 1 0.16500 119244.000000
7478 13372 1 0.16500 119244.000000
7478 14939 1 0.16500 119244.000000
7479 13373 1 0.16500 119244.000000
7479 13467 1 0.16500 119244.000000
7480 13373 1 0.16500 119244.000000
7480 13808 1 0.16500 119244.000000
7481 13374 1 0.16500 119244.000000
7481 14148 1 0.16500 119244.000000
7482 13374 1 0.16500 119244.000000
7482 15284 1 0.16500 119244.000000
7483 13374 1 0.16500 119244.000000
7483 13406 1 0.16500 119244.000000
7484 13375 1 0.16500 119244.000000
7484 14935 1 0.16500 119244.000000
7485 14428 1 0.16500 119244.000000
7485 19057 1 0.16500 119244.000000
7486 15664 1 0.16500 119244.000000
7486 19057 1 0.16500 119244.000000
7487 13376 1 0.16500 119244.000000
7487 14001 1 0.16500 119244.000000
7488 13376 1 0.16500 119244.000000
7488 15003 1 0.16500 119244.000000
7489 13376 1 0.16500 119244.000000
7489 14559 1 0.16500 119244.000000
7490 13377 1 0.16500 119244.000000
7490 21013 1 0.16500 119244.000000
7491 13377 1 0.16500 119244.000000
7491 13469 1 0.16500 119244.000000
7492 13377 1 0.16500 119244.000000
7492 13501 1 0.16500 119244.000000
7493 13378 1 0.16500 119244.000000
7493 22117 1 0.16500 119244.000000
7494 13378 1 0.16500 119244.000000
7494 15089 1 0.16500 119244.000000
7495 13379 1 0.16500 119244.000000
7495 14139 1 0.16500 119244.000000
7496 13379 1 0.16500 119244.000000
7496 13937 1 0.16500 119244.000000
7497 13396 1 0.16500 119244.000000
7497 18385 1 0.16500 119244.000000
7498 13380 1 0.16500 119244.000000
7498 14103 1 0.16500 119244.000000
7499 13380 1 0.16500 119244.000000
7499 15327 1 0.16500 119244.000000
7500 13380 1 0.16500 119244.000000
7500 13682 1 0.16500 119244.000000
7501 13380 1 0.16500 119244.000000
7501 13882 1 0.16500 119244.000000
7502 13381 1 0.16500 119244.000000
7502 15048 1 0.16500 119244.000000
7503 13381 1 0.16500 119244.000000
7503 14054 1 0.16500 119244.000000
7504 13381 1 0.16500 119244.000000
7504 14048 1 0.16500 119244.000000
7505 13382 1 0.16500 119244.000000
7505 15549 1 0.16500 119244.000000
7506 13156 1 0.16500 119244.000000
7506 13382 1 0.16500 119244.000000
7507 14290 1 0.16500 119244.000000
7507 14849 1 0.16500 119244.000000
7508 13383 1 0.16500 119244.000000
7508 14290 1 0.16500 119244.000000
7509 13383 1 0.16500 119244.000000
7509 14719 1 0.16500 119244.000000
7510 17809 1 0.16500 119244.000000
7510 23989 1 0.16500 119244.000000
7511 13384 1 0.16500 119244.000000
7511 13921 1 0.16500 119244.000000
7512 11940 1 0.16500 119244.000000
7512 13384 1 0.16500 119244.000000
7513 13922 1 0.16500 119244.000000
7513 15671 1 0.16500 119244.000000
7514 13601 1 0.16500 119244.000000
7514 13922 1 0.16500 119244.000000
7515 13385 1 0.16500 119244.000000
7515 14703 1 0.16500 119244.000000
7516 13386 1 0.16500 119244.000000
7516 13567 1 0.16500 119244.000000
7517 13386 1 0.16500 119244.000000
7517 15666 1 0.16500 119244.000000
7518 13387 1 0.16500 119244.000000
7518 14103 1 0.16500 119244.000000
7519 13387 1 0.16500 119244.000000
7519 15117 1 0.16500 119244.000000
7520 13388 1 0.16500 119244.000000
7520 15197 1 0.16500 119244.000000
7521 13388 1 0.16500 119244.000000
7521 15155 1 0.16500 119244.000000
7522 15155 1 0.16500 119244.000000
7522 15967 1 0.16500 119244.000000
7523 13389 1 0.16500 119244.000000
7523 16112 1 0.16500 119244.000000
7524 13389 1 0.16500 119244.000000
7524 14578 1 0.16500 119244.000000
7525 13389 1 0.16500 119244.000000
7525 13807 1 0.16500 119244.000000
7526 13390 1 0.16500 119244.000000
7526 15858 1 0.16500 119244.000000
7527 13390 1 0.16500 119244.000000
7527 14788 1 0.16500 119244.000000
7528 12766 1 0.16500 119244.000000
7528 17921 1 0.16500 119244.000000
7529 13657 1 0.16500 119244.000000
7529 17921 1 0.16500 119244.000000
7530 13391 1 0.16500 119244.000000
7530 14596 1 0.16500 119244.000000
7531 13391 1 0.16500 119244.000000
7531 15985 1 0.16500 119244.000000
7532 13391 1 0.16500 119244.000000
7532 15131 1 0.16500 119244.000000
7533 13392 1 0.16500 119244.000000
7533 13640 1 0.16500 119244.000000
7534 13392 1 0.16500 119244.000000
7534 14403 1 0.16500 119244.000000
7535 13393 1 0.16500 119244.000000
7535 16192 1 0.16500 119244.000000
7536 13394 1 0.16500 119244.000000
7536 15893 1 0.16500 119244.000000
7537 13394 1 0.16500 119244.000000
7537 16124 1 0.16500 119244.000000
7538 13395 1 0.16500 119244.000000
7538 15239 1 0.16500 119244.000000
7539 13396 1 0.16500 119244.000000
7539 16082 1 0.16500 119244.000000
7540 13396 1 0.16500 119244.000000
7540 14998 1 0.16500 119244.000000
7541 13397 1 0.16500 119244.000000
7541 15710 1 0.16500 119244.000000
7542 13397 1 0.16500 119244.000000
7542 15298 1 0.16500 119244.000000
7543 13397 1 0.16500 119244.000000
7543 13968 1 0.16500 119244.000000
7544 13398 1 0.16500 119244.000000
7544 15521 1 0.16500 119244.000000
7545 13399 1 0.16500 119244.000000
7545 15679 1 0.16500 119244.000000
7546 13399 1 0.16500 119244.000000
7546 20629 1 0.16500 119244.000000
7547 13401 1 0.16500 119244.000000
7547 13559 1 0.16500 119244.000000
7548 13402 1 0.16500 119244.000000
7548 13964 1 0.16500 119244.000000
7549 13402 1 0.16500 119244.000000
7549 13638 1 0.16500 119244.000000
7550 13402 1 0.16500 119244.000000
7550 14992 1 0.16500 119244.000000
7551 13403 1 0.16500 119244.000000
7551 24277 1 0.16500 119244.000000
7552 13403 1 0.16500 119244.000000
7552 16257 1 0.16500 119244.000000
7553 13404 1 0.16500 119244.000000
7553 14621 1 0.16500 119244.000000
7554 13404 1 0.16500 119244.000000
7554 16226 1 0.16500 119244.000000
7555 13405 1 0.16500 119244.000000
7555 13955 1 0.16500 119244.000000
7556 13406 1 0.16500 119244.000000
7556 14713 1 0.16500 119244.000000
7557 13406 1 0.16500 119244.000000
7557 14540 1 0.16500 119244.000000
7558 13406 1 0.16500 119244.000000
7558 14025 1 0.16500 119244.000000
7559 13664 1 0.16500 119244.000000
7559 17361 1 0.16500 119244.000000
7560 13407 1 0.16500 119244.000000
7560 15268 1 0.16500 119244.000000
7561 13407 1 0.16500 119244.000000
7561 16154 1 0.16500 119244.000000
7562 13407 1 0.16500 119244.000000
7562 14479 1 0.16500 119244.000000
7563 13407 1 0.16500 119244.000000
7563 13611 1 0.16500 119244.000000
7564 13408 1 0.16500 119244.000000
7564 14885 1 0.16500 119244.000000
7565 13408 1 0.16500 119244.000000
7565 13517 1 0.16500 119244.000000
7566 13409 1 0.16500 119244.000000
7566 15623 1 0.16500 119244.000000
7567 13410 1 0.16500 119244.000000
7567 14331 1 0.16500 119244.000000
7568 14331 1 0.16500 119244.000000
7568 15958 1 0.16500 119244.000000
7569 13410 1 0.16500 119244.000000
7569 13779 1 0.16500 119244.000000
7570 13920 1 0.16500 119244.000000
7570 14393 1 0.16500 119244.000000
7571 13411 1 0.16500 119244.000000
7571 13920 1 0.16500 119244.000000
7572 13411 1 0.16500 119244.000000
7572 14196 1 0.16500 119244.000000
7573 13412 1 0.16500 119244.000000
7573 14337 1 0.16500 119244.000000
7574 13412 1 0.16500 119244.000000
7574 15030 1 0.16500 119244.000000
7575 13412 1 0.16500 119244.000000
7575 15699 1 0.16500 119244.000000
7576 13415 1 0.16500 119244.000000
7576 14012 1 0.16500 119244.000000
7577 13415 1 0.16500 119244.000000
7577 15218 1 0.16500 119244.000000
7578 13416 1 0.16500 119244.000000
7578 14659 1 0.16500 119244.000000
7579 13417 1 0.16500 119244.000000
7579 14456 1 0.16500 119244.000000
7580 13417 1 0.16500 119244.000000
7580 20701 1 0.16500 119244.000000
7581 13417 1 0.16500 119244.000000
7581 14974 1 0.16500 119244.000000
7582 13418 1 0.16500 119244.000000
7582 14912 1 0.16500 119244.000000
7583 13419 1 0.16500 119244.000000
7583 16042 1 0.16500 119244.000000
7584 13420 1 0.16500 119244.000000
7584 14025 1 0.16500 119244.000000
7585 13420 1 0.16500 119244.000000
7585 14856 1 0.16500 119244.000000
7586 13421 1 0.16500 119244.000000
7586 15764 1 0.16500 119244.000000
7587 13421 1 0.16500 119244.000000
7587 16123 1 0.16500 119244.000000
7588 13422 1 0.16500 119244.000000
7588 15474 1 0.16500 119244.000000
7589 13422 1 0.16500 119244.000000
7589 13871 1 0.16500 119244.000000
7590 13422 1 0.16500 119244.000000
7590 13518 1 0.16500 119244.000000
7591 13423 1 0.16500 119244.000000
7591 14328 1 0.16500 119244.000000
7592 13423 1 0.16500 119244.000000
7592 15985 1 0.16500 119244.000000
7593 13423 1 0.16500 119244.000000
7593 15239 1 0.16500 119244.000000
7594 13424 1 0.16500 119244.000000
7594 14822 1 0.16500 119244.000000
7595 13424 1 0.16500 119244.000000
7595 14334 1 0.16500 119244.000000
7596 13424 1 0.16500 119244.000000
7596 14471 1 0.16500 119244.000000
7597 13425 1 0.16500 119244.000000
7597 13634 1 0.16500 119244.000000
7598 13425 1 0.16500 119244.000000
7598 16095 1 0.16500 119244.000000
7599 13426 1 0.16500 119244.000000
7599 15679 1 0.16500 119244.000000
7600 13426 1 0.16500 119244.000000
7600 13780 1 0.16500 119244.000000
7601 13427 1 0.16500 119244.000000
7601 13431 1 0.16500 119244.000000
7602 13427 1 0.16500 119244.000000
7602 15266 1 0.16500 119244.000000
7603 13904 1 0.16500 119244.000000
7603 14919 1 0.16500 119244.000000
7604 13428 1 0.16500 119244.000000
7604 14851 1 0.16500 119244.000000
7605 13428 1 0.16500 119244.000000
7605 14919 1 0.16500 119244.000000
7606 13428 1 0.16500 119244.000000
7606 14745 1 0.16500 119244.000000
7607 13429 1 0.16500 119244.000000
7607 15503 1 0.16500 119244.000000
7608 13430 1 0.16500 119244.000000
7608 14205 1 0.16500 119244.000000
7609 13430 1 0.16500 119244.000000
7609 14916 1 0.16500 119244.000000
7610 13431 1 0.16500 119244.000000
7610 15171 1 0.16500 119244.000000
7611 13432 1 0.16500 119244.000000
7611 13777 1 0.16500 119244.000000
7612 13887 1 0.16500 119244.000000
7612 24208 1 0.16500 119244.000000
7613 13433 1 0.16500 119244.000000
7613 24208 1 0.16500 119244.000000
7614 13433 1 0.16500 119244.000000
7614 23839 1 0.16500 119244.000000
7615 13434 1 0.16500 119244.000000
7615 15563 1 0.16500 119244.000000
7616 13434 1 0.16500 119244.000000
7616 16252 1 0.16500 119244.000000
7617 13434 1 0.16500 119244.000000
7617 14738 1 0.16500 119244.000000
7618 13436 1 0.16500 119244.000000
7618 13799 1 0.16500 119244.000000
7619 13436 1 0.16500 119244.000000
7619 13689 1 0.16500 119244.000000
7620 13436 1 0.16500 119244.000000
7620 14320 1 0.16500 119244.000000
7621 13437 1 0.16500 119244.000000
7621 15992 1 0.16500 119244.000000
7622 13437 1 0.16500 119244.000000
7622 14274 1 0.16500 119244.000000
7623 13437 1 0.16500 119244.000000
7623 14903 1 0.16500 119244.000000
7624 22045 1 0.16500 119244.000000
7624 23938 1 0.16500 119244.000000
7625 19237 1 0.16500 119244.000000
7625 23938 1 0.16500 119244.000000
7626 14584 1 0.16500 119244.000000
7626 23938 1 0.16500 119244.000000
7627 21001 1 0.16500 119244.000000
7627 24301 1 0.16500 119244.000000
7628 14448 1 0.16500 119244.000000
7628 21001 1 0.16500 119244.000000
7629 13438 1 0.16500 119244.000000
7629 14761 1 0.16500 119244.000000
7630 13438 1 0.16500 119244.000000
7630 15195 1 0.16500 119244.000000
7631 13438 1 0.16500 119244.000000
7631 15976 1 0.16500 119244.000000
7632 13439 1 0.16500 119244.000000
7632 14436 1 0.16500 119244.000000
7633 13439 1 0.16500 119244.000000
7633 14862 1 0.16500 119244.000000
7634 13439 1 0.16500 119244.000000
7634 15706 1 0.16500 119244.000000
7635 13439 1 0.16500 119244.000000
7635 14930 1 0.16500 119244.000000
7636 15193 1 0.16500 119244.000000
7636 24402 1 0.16500 119244.000000
7637 13440 1 0.16500 119244.000000
7637 13809 1 0.16500 119244.000000
7638 13440 1 0.16500 119244.000000
7638 18853 1 0.16500 119244.000000
7639 13440 1 0.16500 119244.000000
7639 15791 1 0.16500 119244.000000
7640 13441 1 0.16500 119244.000000
7640 14278 1 0.16500 119244.000000
7641 13441 1 0.16500 119244.000000
7641 14221 1 0.16500 119244.000000
7642 13442 1 0.16500 119244.000000
7642 15737 1 0.16500 119244.000000
7643 13442 1 0.16500 119244.000000
7643 15879 1 0.16500 119244.000000
7644 14147 1 0.16500 119244.000000
7644 15481 1 0.16500 119244.000000
7645 13443 1 0.16500 119244.000000
7645 15481 1 0.16500 119244.000000
7646 11750 1 0.16500 119244.000000
7646 13443 1 0.16500 119244.000000
7647 13444 1 0.16500 119244.000000
7647 15183 1 0.16500 119244.000000
7648 13444 1 0.16500 119244.000000
7648 13676 1 0.16500 119244.000000
7649 13445 1 0.16500 119244.000000
7649 15763 1 0.16500 119244.000000
7650 13445 1 0.16500 119244.000000
7650 13522 1 0.16500 119244.000000
7651 13446 1 0.16500 119244.000000
7651 14272 1 0.16500 119244.000000
7652 13446 1 0.16500 119244.000000
7652 15039 1 0.16500 119244.000000
7653 13446 1 0.16500 119244.000000
7653 14008 1 0.16500 119244.000000
7654 13447 1 0.16500 119244.000000
7654 16148 1 0.16500 119244.000000
7655 12716 1 0.16500 119244.000000
7655 15584 1 0.16500 119244.000000
7656 13448 1 0.16500 119244.000000
7656 14946 1 0.16500 119244.000000
7657 13449 1 0.16500 119244.000000
7657 24004 1 0.16500 119244.000000
7658 12320 1 0.16500 119244.000000
7658 14759 1 0.16500 119244.000000
7659 13450 1 0.16500 119244.000000
7659 14451 1 0.16500 119244.000000
7660 13450 1 0.16500 119244.000000
7660 15353 1 0.16500 119244.000000
7661 16857 1 0.16500 119244.000000
7661 24106 1 0.16500 119244.000000
7662 13552 1 0.16500 119244.000000
7662 16857 1 0.16500 119244.000000
7663 11706 1 0.16500 119244.000000
7663 24106 1 0.16500 119244.000000
7664 14300 1 0.16500 119244.000000
7664 23941 1 0.16500 119244.000000
7665 14262 1 0.16500 119244.000000
7665 23944 1 0.16500 119244.000000
7666 20137 1 0.16500 119244.000000
7666 23944 1 0.16500 119244.000000
7667 13452 1 0.16500 119244.000000
7667 14970 1 0.16500 119244.000000
7668 13453 1 0.16500 119244.000000
7668 15370 1 0.16500 119244.000000
7669 11362 1 0.16500 119244.000000
7669 13926 1 0.16500 119244.000000
7670 12837 1 0.16500 119244.000000
7670 15854 1 0.16500 119244.000000
7671 13454 1 0.16500 119244.000000
7671 15951 1 0.16500 119244.000000
7672 14705 1 0.16500 119244.000000
7672 15951 1 0.16500 119244.000000
7673 13455 1 0.16500 119244.000000
7673 14745 1 0.16500 119244.000000
7674 12727 1 0.16500 119244.000000
7674 13456 1 0.16500 119244.000000
7675 13457 1 0.16500 119244.000000
7675 15006 1 0.16500 119244.000000
7676 13457 1 0.16500 119244.000000
7676 15378 1 0.16500 119244.000000
7677 13457 1 0.16500 119244.000000
7677 14889 1 0.16500 119244.000000
7678 13458 1 0.16500 119244.000000
7678 14552 1 0.16500 119244.000000
7679 13458 1 0.16500 119244.000000
7679 15606 1 0.16500 119244.000000
7680 13458 1 0.16500 119244.000000
7680 14536 1 0.16500 119244.000000
7681 13459 1 0.16500 119244.000000
7681 14981 1 0.16500 119244.000000
7682 13459 1 0.16500 119244.000000
7682 14183 1 0.16500 119244.000000
7683 13460 1 0.16500 119244.000000
7683 14287 1 0.16500 119244.000000
7684 13460 1 0.16500 119244.000000
7684 16130 1 0.16500 119244.000000
7685 13460 1 0.16500 119244.000000
7685 15543 1 0.16500 119244.000000
7686 14475 1 0.16500 119244.000000
7686 19585 1 0.16500 119244.000000
7687 13751 1 0.16500 119244.000000
7687 22525 1 0.16500 119244.000000
7688 15091 1 0.16500 119244.000000
7688 22525 1 0.16500 119244.000000
7689 13462 1 0.16500 119244.000000
7689 15147 1 0.16500 119244.000000
7690 13462 1 0.16500 119244.000000
7690 15977 1 0.16500 119244.000000
7691 13463 1 0.16500 119244.000000
7691 15507 1 0.16500 119244.000000
7692 13463 1 0.16500 119244.000000
7692 15906 1 0.16500 119244.000000
7693 14483 1 0.16500 119244.000000
7693 15231 1 0.16500 119244.000000
7694 13464 1 0.16500 119244.000000
7694 13783 1 0.16500 119244.000000
7695 13464 1 0.16500 119244.000000
7695 14483 1 0.16500 119244.000000
7696 13464 1 0.16500 119244.000000
7696 15829 1 0.16500 119244.000000
7697 13465 1 0.16500 119244.000000
7697 16208 1 0.16500 119244.000000
7698 13465 1 0.16500 119244.000000
7698 14303 1 0.16500 119244.000000
7699 14112 1 0.16500 119244.000000
7699 16208 1 0.16500 119244.000000
7700 13466 1 0.16500 119244.000000
7700 16036 1 0.16500 119244.000000
7701 13466 1 0.16500 119244.000000
7701 15424 1 0.16500 119244.000000
7702 13467 1 0.16500 119244.000000
7702 15599 1 0.16500 119244.000000
7703 13467 1 0.16500 119244.000000
7703 14232 1 0.16500 119244.000000
7704 13468 1 0.16500 119244.000000
7704 14987 1 0.16500 119244.000000
7705 13468 1 0.16500 119244.000000
7705 15508 1 0.16500 119244.000000
7706 13469 1 0.16500 119244.000000
7706 13906 1 0.16500 119244.000000
7707 13469 1 0.16500 119244.000000
7707 14459 1 0.16500 119244.000000
7708 13470 1 0.16500 119244.000000
7708 20005 1 0.16500 119244.000000
7709 13470 1 0.16500 119244.000000
7709 15328 1 0.16500 119244.000000
7710 13470 1 0.16500 119244.000000
7710 14938 1 0.16500 119244.000000
7711 22849 1 0.16500 119244.000000
7711 24217 1 0.16500 119244.000000
7712 14105 1 0.16500 119244.000000
7712 22849 1 0.16500 119244.000000
7713 13471 1 0.16500 119244.000000
7713 15199 1 0.16500 119244.000000
7714 13471 1 0.16500 119244.000000
7714 20413 1 0.16500 119244.000000
7715 13472 1 0.16500 119244.000000
7715 16080 1 0.16500 119244.000000
7716 13472 1 0.16500 119244.000000
7716 15834 1 0.16500 119244.000000
7717 13472 1 0.16500 119244.000000
7717 14388 1 0.16500 119244.000000
7718 13473 1 0.16500 119244.000000
7718 16173 1 0.16500 119244.000000
7719 13473 1 0.16500 119244.000000
7719 15056 1 0.16500 119244.000000
7720 13473 1 0.16500 119244.000000
7720 15375 1 0.16500 119244.000000
7721 13474 1 0.16500 119244.000000
7721 14459 1 0.16500 119244.000000
7722 13475 1 0.16500 119244.000000
7722 13717 1 0.16500 119244.000000
7723 13475 1 0.16500 119244.000000
7723 15771 1 0.16500 119244.000000
7724 13475 1 0.16500 119244.000000
7724 14109 1 0.16500 119244.000000
7725 13475 1 0.16500 119244.000000
7725 14861 1 0.16500 119244.000000
7726 13476 1 0.16500 119244.000000
7726 14300 1 0.16500 119244.000000
7727 13476 1 0.16500 119244.000000
7727 15568 1 0.16500 119244.000000
7728 13476 1 0.16500 119244.000000
7728 14279 1 0.16500 119244.000000
7729 13477 1 0.16500 119244.000000
7729 16131 1 0.16500 119244.000000
7730 13477 1 0.16500 119244.000000
7730 14755 1 0.16500 119244.000000
7731 13478 1 0.16500 119244.000000
7731 14269 1 0.16500 119244.000000
7732 13479 1 0.16500 119244.000000
7732 24447 1 0.16500 119244.000000
7733 13479 1 0.16500 119244.000000
7733 15640 1 0.16500 119244.000000
7734 13479 1 0.16500 119244.000000
7734 15335 1 0.16500 119244.000000
7735 13480 1 0.16500 119244.000000
7735 15597 1 0.16500 119244.000000
7736 13480 1 0.16500 119244.000000
7736 14495 1 0.16500 119244.000000
7737 13480 1 0.16500 119244.000000
7737 13800 1 0.16500 119244.000000
7738 13481 1 0.16500 119244.000000
7738 14654 1 0.16500 119244.000000
7739 13171 1 0.16500 119244.000000
7739 14468 1 0.16500 119244.000000
7740 11437 1 0.16500 119244.000000
7740 13481 1 0.16500 119244.000000
7741 13482 1 0.16500 119244.000000
7741 21985 1 0.16500 119244.000000
7742 13482 1 0.16500 119244.000000
7742 24052 1 0.16500 119244.000000
7743 13482 1 0.16500 119244.000000
7743 14227 1 0.16500 119244.000000
7744 13482 1 0.16500 119244.000000
7744 15374 1 0.16500 119244.000000
7745 13483 1 0.16500 119244.000000
7745 15672 1 0.16500 119244.000000
7746 13484 1 0.16500 119244.000000
7746 15044 1 0.16500 119244.000000
7747 13484 1 0.16500 119244.000000
7747 14344 1 0.16500 119244.000000
7748 13484 1 0.16500 119244.000000
7748 14129 1 0.16500 119244.000000
7749 13484 1 0.16500 119244.000000
7749 15206 1 0.16500 119244.000000
7750 13486 1 0.16500 119244.000000
7750 15627 1 0.16500 119244.000000
7751 13486 1 0.16500 119244.000000
7751 14993 1 0.16500 119244.000000
7752 13487 1 0.16500 119244.000000
7752 15685 1 0.16500 119244.000000
7753 13487 1 0.16500 119244.000000
7753 15361 1 0.16500 119244.000000
7754 13487 1 0.16500 119244.000000
7754 15630 1 0.16500 119244.000000
7755 13488 1 0.16500 119244.000000
7755 16205 1 0.16500 119244.000000
7756 13488 1 0.16500 119244.000000
7756 14999 1 0.16500 119244.000000
7757 13488 1 0.16500 119244.000000
7757 16176 1 0.16500 119244.000000
7758 13489 1 0.16500 119244.000000
7758 15642 1 0.16500 119244.000000
7759 12346 1 0.16500 119244.000000
7759 16125 1 0.16500 119244.000000
7760 13490 1 0.16500 119244.000000
7760 15420 1 0.16500 119244.000000
7761 12538 1 0.16500 119244.000000
7761 15849 1 0.16500 119244.000000
7762 13492 1 0.16500 119244.000000
7762 23956 1 0.16500 119244.000000
7763 23947 1 0.16500 119244.000000
7763 23956 1 0.16500 119244.000000
7764 13492 1 0.16500 119244.000000
7764 15590 1 0.16500 119244.000000
7765 11634 1 0.16500 119244.000000
7765 16240 1 0.16500 119244.000000
7766 13493 1 0.16500 119244.000000
7766 14922 1 0.16500 119244.000000
7767 13493 1 0.16500 119244.000000
7767 14459 1 0.16500 119244.000000
7768 13494 1 0.16500 119244.000000
7768 14586 1 0.16500 119244.000000
7769 14707 1 0.16500 119244.000000
7769 20473 1 0.16500 119244.000000
7770 18243 1 0.16500 119244.000000
7770 20473 1 0.16500 119244.000000
7771 13495 1 0.16500 119244.000000
7771 15944 1 0.16500 119244.000000
7772 13495 1 0.16500 119244.000000
7772 16297 1 0.16500 119244.000000
7773 11416 1 0.16500 119244.000000
7773 13495 1 0.16500 119244.000000
7774 14310 1 0.16500 119244.000000
7774 15417 1 0.16500 119244.000000
7775 13496 1 0.16500 119244.000000
7775 14572 1 0.16500 119244.000000
7776 13496 1 0.16500 119244.000000
7776 15417 1 0.16500 119244.000000
7777 13497 1 0.16500 119244.000000
7777 13567 1 0.16500 119244.000000
7778 13498 1 0.16500 119244.000000
7778 16065 1 0.16500 119244.000000
7779 13498 1 0.16500 119244.000000
7779 14142 1 0.16500 119244.000000
7780 13499 1 0.16500 119244.000000
7780 14913 1 0.16500 119244.000000
7781 13310 1 0.16500 119244.000000
7781 14708 1 0.16500 119244.000000
7782 13499 1 0.16500 119244.000000
7782 16070 1 0.16500 119244.000000
7783 22861 1 0.16500 119244.000000
7783 23947 1 0.16500 119244.000000
7784 14273 1 0.16500 119244.000000
7784 15971 1 0.16500 119244.000000
7785 14273 1 0.16500 119244.000000
7785 23947 1 0.16500 119244.000000
7786 13500 1 0.16500 119244.000000
7786 14108 1 0.16500 119244.000000
7787 13500 1 0.16500 119244.000000
7787 15291 1 0.16500 119244.000000
7788 13501 1 0.16500 119244.000000
7788 24055 1 0.16500 119244.000000
7789 13501 1 0.16500 119244.000000
7789 15755 1 0.16500 119244.000000
7790 13501 1 0.16500 119244.000000
7790 16240 1 0.16500 119244.000000
7791 13502 1 0.16500 119244.000000
7791 14937 1 0.16500 119244.000000
7792 13503 1 0.16500 119244.000000
7792 15277 1 0.16500 119244.000000
7793 13504 1 0.16500 119244.000000
7793 14932 1 0.16500 119244.000000
7794 13504 1 0.16500 119244.000000
7794 16227 1 0.16500 119244.000000
7795 13504 1 0.16500 119244.000000
7795 14596 1 0.16500 119244.000000
7796 13505 1 0.16500 119244.000000
7796 15912 1 0.16500 119244.000000
7797 13505 1 0.16500 119244.000000
7797 13924 1 0.16500 119244.000000
7798 13507 1 0.16500 119244.000000
7798 15866 1 0.16500 119244.000000
7799 13507 1 0.16500 119244.000000
7799 13894 1 0.16500 119244.000000
7800 13702 1 0.16500 119244.000000
7800 20509 1 0.16500 119244.000000
7801 13508 1 0.16500 119244.000000
7801 15125 1 0.16500 119244.000000
7802 13508 1 0.16500 119244.000000
7802 15885 1 0.16500 119244.000000
7803 13509 1 0.16500 119244.000000
7803 14061 1 0.16500 119244.000000
7804 13510 1 0.16500 119244.000000
7804 15052 1 0.16500 119244.000000
7805 22729 1 0.16500 119244.000000
7805 23968 1 0.16500 119244.000000
7806 19945 1 0.16500 119244.000000
7806 22729 1 0.16500 119244.000000
7807 13511 1 0.16500 119244.000000
7807 24076 1 0.16500 119244.000000
7808 13512 1 0.16500 119244.000000
7808 14742 1 0.16500 119244.000000
7809 13512 1 0.16500 119244.000000
7809 13730 1 0.16500 119244.000000
7810 13512 1 0.16500 119244.000000
7810 14674 1 0.16500 119244.000000
7811 13512 1 0.16500 119244.000000
7811 15367 1 0.16500 119244.000000
7812 13777 1 0.16500 119244.000000
7812 24407 1 0.16500 119244.000000
7813 16367 1 0.16500 119244.000000
7813 24407 1 0.16500 119244.000000
7814 13513 1 0.16500 119244.000000
7814 15477 1 0.16500 119244.000000
7815 13513 1 0.16500 119244.000000
7815 13599 1 0.16500 119244.000000
7816 13514 1 0.16500 119244.000000
7816 15522 1 0.16500 119244.000000
7817 13514 1 0.16500 119244.000000
7817 15103 1 0.16500 119244.000000
7818 20977 1 0.16500 119244.000000
7818 24238 1 0.16500 119244.000000
7819 15583 1 0.16500 119244.000000
7819 20977 1 0.16500 119244.000000
7820 12142 1 0.16500 119244.000000
7820 14987 1 0.16500 119244.000000
7821 13516 1 0.16500 119244.000000
7821 15317 1 0.16500 119244.000000
7822 13516 1 0.16500 119244.000000
7822 14963 1 0.16500 119244.000000
7823 13517 1 0.16500 119244.000000
7823 13854 1 0.16500 119244.000000
7824 13517 1 0.16500 119244.000000
7824 16211 1 0.16500 119244.000000
7825 13517 1 0.16500 119244.000000
7825 15604 1 0.16500 119244.000000
7826 13519 1 0.16500 119244.000000
7826 15845 1 0.16500 119244.000000
7827 13519 1 0.16500 119244.000000
7827 16200 1 0.16500 119244.000000
7828 13520 1 0.16500 119244.000000
7828 15992 1 0.16500 119244.000000
7829 13520 1 0.16500 119244.000000
7829 15849 1 0.16500 119244.000000
7830 13521 1 0.16500 119244.000000
7830 16276 1 0.16500 119244.000000
7831 13521 1 0.16500 119244.000000
7831 14803 1 0.16500 119244.000000
7832 16037 1 0.16500 119244.000000
7832 16254 1 0.16500 119244.000000
7833 13522 1 0.16500 119244.000000
7833 16254 1 0.16500 119244.000000
7834 13523 1 0.16500 119244.000000
7834 24070 1 0.16500 119244.000000
7835 13523 1 0.16500 119244.000000
7835 14799 1 0.16500 119244.000000
7836 13523 1 0.16500 119244.000000
7836 24043 1 0.16500 119244.000000
7837 13524 1 0.16500 119244.000000
7837 14284 1 0.16500 119244.000000
7838 13524 1 0.16500 119244.000000
7838 14499 1 0.16500 119244.000000
7839 13525 1 0.16500 119244.000000
7839 13845 1 0.16500 119244.000000
7840 13526 1 0.16500 119244.000000
7840 14305 1 0.16500 119244.000000
7841 13526 1 0.16500 119244.000000
7841 13625 1 0.16500 119244.000000
7842 21529 1 0.16500 119244.000000
7842 23998 1 0.16500 119244.000000
7843 21997 1 0.16500 119244.000000
7843 24214 1 0.16500 119244.000000
7844 13552 1 0.16500 119244.000000
7844 21997 1 0.16500 119244.000000
7845 15925 1 0.16500 119244.000000
7845 21997 1 0.16500 119244.000000
7846 13527 1 0.16500 119244.000000
7846 14505 1 0.16500 119244.000000
7847 13527 1 0.16500 119244.000000
7847 13528 1 0.16500 119244.000000
7848 13528 1 0.16500 119244.000000
7848 14380 1 0.16500 119244.000000
7849 13528 1 0.16500 119244.000000
7849 15255 1 0.16500 119244.000000
7850 13529 1 0.16500 119244.000000
7850 14414 1 0.16500 119244.000000
7851 15345 1 0.16500 119244.000000
7851 24109 1 0.16500 119244.000000
7852 13529 1 0.16500 119244.000000
7852 15345 1 0.16500 119244.000000
7853 13530 1 0.16500 119244.000000
7853 15709 1 0.16500 119244.000000
7854 13531 1 0.16500 119244.000000
7854 15022 1 0.16500 119244.000000
7855 13531 1 0.16500 119244.000000
7855 13556 1 0.16500 119244.000000
7856 13532 1 0.16500 119244.000000
7856 15366 1 0.16500 119244.000000
7857 13532 1 0.16500 119244.000000
7857 14139 1 0.16500 119244.000000
7858 13532 1 0.16500 119244.000000
7858 15822 1 0.16500 119244.000000
7859 13654 1 0.16500 119244.000000
7859 23950 1 0.16500 119244.000000
7860 13533 1 0.16500 119244.000000
7860 23317 1 0.16500 119244.000000
7861 13533 1 0.16500 119244.000000
7861 24217 1 0.16500 119244.000000
7862 13534 1 0.16500 119244.000000
7862 23437 1 0.16500 119244.000000
7863 13534 1 0.16500 119244.000000
7863 16493 1 0.16500 119244.000000
7864 13534 1 0.16500 119244.000000
7864 16237 1 0.16500 119244.000000
7865 12975 1 0.16500 119244.000000
7865 13535 1 0.16500 119244.000000
7866 13535 1 0.16500 119244.000000
7866 14289 1 0.16500 119244.000000
7867 13535 1 0.16500 119244.000000
7867 14122 1 0.16500 119244.000000
7868 13535 1 0.16500 119244.000000
7868 16195 1 0.16500 119244.000000
7869 13537 1 0.16500 119244.000000
7869 15851 1 0.16500 119244.000000
7870 13537 1 0.16500 119244.000000
7870 13585 1 0.16500 119244.000000
7871 13538 1 0.16500 119244.000000
7871 15101 1 0.16500 119244.000000
7872 13538 1 0.16500 119244.000000
7872 14251 1 0.16500 119244.000000
7873 13539 1 0.16500 119244.000000
7873 15252 1 0.16500 119244.000000
7874 13539 1 0.16500 119244.000000
7874 15776 1 0.16500 119244.000000
7875 13540 1 0.16500 119244.000000
7875 14394 1 0.16500 119244.000000
7876 13540 1 0.16500 119244.000000
7876 13836 1 0.16500 119244.000000
7877 13540 1 0.16500 119244.000000
7877 15640 1 0.16500 119244.000000
7878 13122 1 0.16500 119244.000000
7878 13541 1 0.16500 119244.000000
7879 13541 1 0.16500 119244.000000
7879 15282 1 0.16500 119244.000000
7880 13541 1 0.16500 119244.000000
7880 15917 1 0.16500 119244.000000
7881 13542 1 0.16500 119244.000000
7881 15651 1 0.16500 119244.000000
7882 13542 1 0.16500 119244.000000
7882 15938 1 0.16500 119244.000000
7883 13543 1 0.16500 119244.000000
7883 14893 1 0.16500 119244.000000
7884 13543 1 0.16500 119244.000000
7884 15308 1 0.16500 119244.000000
7885 13543 1 0.16500 119244.000000
7885 13632 1 0.16500 119244.000000
7886 13544 1 0.16500 119244.000000
7886 15508 1 0.16500 119244.000000
7887 13544 1 0.16500 119244.000000
7887 15556 1 0.16500 119244.000000
7888 13544 1 0.16500 119244.000000
7888 14840 1 0.16500 119244.000000
7889 13545 1 0.16500 119244.000000
7889 16097 1 0.16500 119244.000000
7890 13545 1 0.16500 119244.000000
7890 15708 1 0.16500 119244.000000
7891 13545 1 0.16500 119244.000000
7891 14477 1 0.16500 119244.000000
7892 13546 1 0.16500 119244.000000
7892 13979 1 0.16500 119244.000000
7893 13546 1 0.16500 119244.000000
7893 14920 1 0.16500 119244.000000
7894 13546 1 0.16500 119244.000000
7894 13565 1 0.16500 119244.000000
7895 13547 1 0.16500 119244.000000
7895 15768 1 0.16500 119244.000000
7896 13547 1 0.16500 119244.000000
7896 15822 1 0.16500 119244.000000
7897 13547 1 0.16500 119244.000000
7897 18159 1 0.16500 119244.000000
7898 13548 1 0.16500 119244.000000
7898 14121 1 0.16500 119244.000000
7899 13548 1 0.16500 119244.000000
7899 14457 1 0.16500 119244.000000
7900 13548 1 0.16500 119244.000000
7900 15302 1 0.16500 119244.000000
7901 13549 1 0.16500 119244.000000
7901 14254 1 0.16500 119244.000000
7902 13550 1 0.16500 119244.000000
7902 16001 1 0.16500 119244.000000
7903 13550 1 0.16500 119244.000000
7903 14024 1 0.16500 119244.000000
7904 13551 1 0.16500 119244.000000
7904 15867 1 0.16500 119244.000000
7905 13551 1 0.16500 119244.000000
7905 13906 1 0.16500 119244.000000
7906 13553 1 0.16500 119244.000000
7906 14378 1 0.16500 119244.000000
7907 13553 1 0.16500 119244.000000
7907 13860 1 0.16500 119244.000000
7908 22621 1 0.16500 119244.000000
7908 24286 1 0.16500 119244.000000
7909 13554 1 0.16500 119244.000000
7909 24482 1 0.16500 119244.000000
7910 13554 1 0.16500 119244.000000
7910 23962 1 0.16500 119244.000000
7911 13555 1 0.16500 119244.000000
7911 16026 1 0.16500 119244.000000
7912 13555 1 0.16500 119244.000000
7912 14746 1 0.16500 119244.000000
7913 13556 1 0.16500 119244.000000
7913 13769 1 0.16500 119244.000000
7914 13556 1 0.16500 119244.000000
7914 14537 1 0.16500 119244.000000
7915 13556 1 0.16500 119244.000000
7915 15743 1 0.16500 119244.000000
7916 13557 1 0.16500 119244.000000
7916 15895 1 0.16500 119244.000000
7917 13557 1 0.16500 119244.000000
7917 15695 1 0.16500 119244.000000
7918 13558 1 0.16500 119244.000000
7918 15027 1 0.16500 119244.000000
7919 13558 1 0.16500 119244.000000
7919 14254 1 0.16500 119244.000000
7920 13558 1 0.16500 119244.000000
7920 15327 1 0.16500 119244.000000
7921 13559 1 0.16500 119244.000000
7921 14625 1 0.16500 119244.000000
7922 13559 1 0.16500 119244.000000
7922 14007 1 0.16500 119244.000000
7923 13560 1 0.16500 119244.000000
7923 14809 1 0.16500 119244.000000
7924 13560 1 0.16500 119244.000000
7924 15765 1 0.16500 119244.000000
7925 13560 1 0.16500 119244.000000
7925 13616 1 0.16500 119244.000000
7926 13561 1 0.16500 119244.000000
7926 15198 1 0.16500 119244.000000
7927 13562 1 0.16500 119244.000000
7927 16243 1 0.16500 119244.000000
7928 13562 1 0.16500 119244.000000
7928 14076 1 0.16500 119244.000000
7929 13563 1 0.16500 119244.000000
7929 16066 1 0.16500 119244.000000
7930 13563 1 0.16500 119244.000000
7930 15001 1 0.16500 119244.000000
7931 13563 1 0.16500 119244.000000
7931 13628 1 0.16500 119244.000000
7932 15696 1 0.16500 119244.000000
7932 22885 1 0.16500 119244.000000
7933 22885 1 0.16500 119244.000000
7933 24163 1 0.16500 119244.000000
7934 13564 1 0.16500 119244.000000
7934 15934 1 0.16500 119244.000000
7935 13564 1 0.16500 119244.000000
7935 15437 1 0.16500 119244.000000
7936 13564 1 0.16500 119244.000000
7936 14066 1 0.16500 119244.000000
7937 13565 1 0.16500 119244.000000
7937 15496 1 0.16500 119244.000000
7938 13565 1 0.16500 119244.000000
7938 13936 1 0.16500 119244.000000
7939 13565 1 0.16500 119244.000000
7939 14583 1 0.16500 119244.000000
7940 13566 1 0.16500 119244.000000
7940 16169 1 0.16500 119244.000000
7941 13566 1 0.16500 119244.000000
7941 14496 1 0.16500 119244.000000
7942 13567 1 0.16500 119244.000000
7942 15011 1 0.16500 119244.000000
7943 13568 1 0.16500 119244.000000
7943 13874 1 0.16500 119244.000000
7944 13568 1 0.16500 119244.000000
7944 15600 1 0.16500 119244.000000
7945 14448 1 0.16500 119244.000000
7945 16577 1 0.16500 119244.000000
7946 13569 1 0.16500 119244.000000
7946 14145 1 0.16500 119244.000000
7947 13569 1 0.16500 119244.000000
7947 15220 1 0.16500 119244.000000
7948 13569 1 0.16500 119244.000000
7948 13748 1 0.16500 119244.000000
7949 13570 1 0.16500 119244.000000
7949 15618 1 0.16500 119244.000000
7950 13571 1 0.16500 119244.000000
7950 14844 1 0.16500 119244.000000
7951 13572 1 0.16500 119244.000000
7951 16006 1 0.16500 119244.000000
7952 13572 1 0.16500 119244.000000
7952 14906 1 0.16500 119244.000000
7953 12699 1 0.16500 119244.000000
7953 13572 1 0.16500 119244.000000
7954 13573 1 0.16500 119244.000000
7954 16106 1 0.16500 119244.000000
7955 13574 1 0.16500 119244.000000
7955 16078 1 0.16500 119244.000000
7956 13575 1 0.16500 119244.000000
7956 18673 1 0.16500 119244.000000
7957 13576 1 0.16500 119244.000000
7957 16004 1 0.16500 119244.000000
7958 13576 1 0.16500 119244.000000
7958 14022 1 0.16500 119244.000000
7959 13576 1 0.16500 119244.000000
7959 15172 1 0.16500 119244.000000
7960 13577 1 0.16500 119244.000000
7960 14855 1 0.16500 119244.000000
7961 13577 1 0.16500 119244.000000
7961 16118 1 0.16500 119244.000000
7962 13578 1 0.16500 119244.000000
7962 16196 1 0.16500 119244.000000
7963 13579 1 0.16500 119244.000000
7963 15572 1 0.16500 119244.000000
7964 13579 1 0.16500 119244.000000
7964 15318 1 0.16500 119244.000000
7965 13579 1 0.16500 119244.000000
7965 15790 1 0.16500 119244.000000
7966 13579 1 0.16500 119244.000000
7966 15202 1 0.16500 119244.000000
7967 13580 1 0.16500 119244.000000
7967 15236 1 0.16500 119244.000000
7968 13580 1 0.16500 119244.000000
7968 13779 1 0.16500 119244.000000
7969 13582 1 0.16500 119244.000000
7969 14866 1 0.16500 119244.000000
7970 13582 1 0.16500 119244.000000
7970 14913 1 0.16500 119244.000000
7971 13582 1 0.16500 119244.000000
7971 14653 1 0.16500 119244.000000
7972 16102 1 0.16500 119244.000000
7972 16139 1 0.16500 119244.000000
7973 14357 1 0.16500 119244.000000
7973 16102 1 0.16500 119244.000000
7974 13583 1 0.16500 119244.000000
7974 16102 1 0.16500 119244.000000
7975 13584 1 0.16500 119244.000000
7975 15555 1 0.16500 119244.000000
7976 13584 1 0.16500 119244.000000
7976 14431 1 0.16500 119244.000000
7977 13585 1 0.16500 119244.000000
7977 14242 1 0.16500 119244.000000
7978 13586 1 0.16500 119244.000000
7978 20773 1 0.16500 119244.000000
7979 13586 1 0.16500 119244.000000
7979 15316 1 0.16500 119244.000000
7980 13586 1 0.16500 119244.000000
7980 24427 1 0.16500 119244.000000
7981 13587 1 0.16500 119244.000000
7981 16731 1 0.16500 119244.000000
7982 13588 1 0.16500 119244.000000
7982 15882 1 0.16500 119244.000000
7983 13588 1 0.16500 119244.000000
7983 15415 1 0.16500 119244.000000
7984 13589 1 0.16500 119244.000000
7984 16201 1 0.16500 119244.000000
7985 13589 1 0.16500 119244.000000
7985 14484 1 0.16500 119244.000000
7986 13590 1 0.16500 119244.000000
7986 14693 1 0.16500 119244.000000
7987 13590 1 0.16500 119244.000000
7987 15269 1 0.16500 119244.000000
7988 13590 1 0.16500 119244.000000
7988 16162 1 0.16500 119244.000000
7989 13591 1 0.16500 119244.000000
7989 14032 1 0.16500 119244.000000
7990 13591 1 0.16500 119244.000000
7990 20857 1 0.16500 119244.000000
7991 13591 1 0.16500 119244.000000
7991 19765 1 0.16500 119244.000000
7992 13592 1 0.16500 119244.000000
7992 15046 1 0.16500 119244.000000
7993 13592 1 0.16500 119244.000000
7993 14122 1 0.16500 119244.000000
7994 13593 1 0.16500 119244.000000
7994 15619 1 0.16500 119244.000000
7995 13594 1 0.16500 119244.000000
7995 14620 1 0.16500 119244.000000
7996 13594 1 0.16500 119244.000000
7996 14557 1 0.16500 119244.000000
7997 13594 1 0.16500 119244.000000
7997 15457 1 0.16500 119244.000000
7998 13595 1 0.16500 119244.000000
7998 15679 1 0.16500 119244.000000
7999 13595 1 0.16500 119244.000000
7999 13832 1 0.16500 119244.000000
8000 13595 1 0.16500 119244.000000
8000 14501 1 0.16500 119244.000000
8001 13597 1 0.16500 119244.000000
8001 14282 1 0.16500 119244.000000
8002 13597 1 0.16500 119244.000000
8002 14322 1 0.16500 119244.000000
8003 13597 1 0.16500 119244.000000
8003 15520 1 0.16500 119244.000000
8004 13598 1 0.16500 119244.000000
8004 14673 1 0.16500 119244.000000
8005 13598 1 0.16500 119244.000000
8005 14904 1 0.16500 119244.000000
8006 13598 1 0.16500 119244.000000
8006 15734 1 0.16500 119244.000000
8007 13598 1 0.16500 119244.000000
8007 13833 1 0.16500 119244.000000
8008 13599 1 0.16500 119244.000000
8008 15370 1 0.16500 119244.000000
8009 13599 1 0.16500 119244.000000
8009 14361 1 0.16500 119244.000000
8010 13600 1 0.16500 119244.000000
8010 13758 1 0.16500 119244.000000
8011 13600 1 0.16500 119244.000000
8011 20665 1 0.16500 119244.000000
8012 15518 1 0.16500 119244.000000
8012 18937 1 0.16500 119244.000000
8013 15989 1 0.16500 119244.000000
8013 18937 1 0.16500 119244.000000
8014 13385 1 0.16500 119244.000000
8014 13601 1 0.16500 119244.000000
8015 13602 1 0.16500 119244.000000
8015 15927 1 0.16500 119244.000000
8016 13602 1 0.16500 119244.000000
8016 14046 1 0.16500 119244.000000
8017 13602 1 0.16500 119244.000000
8017 16214 1 0.16500 119244.000000
8018 13602 1 0.16500 119244.000000
8018 14523 1 0.16500 119244.000000
8019 13603 1 0.16500 119244.000000
8019 15199 1 0.16500 119244.000000
8020 13603 1 0.16500 119244.000000
8020 16192 1 0.16500 119244.000000
8021 13603 1 0.16500 119244.000000
8021 14174 1 0.16500 119244.000000
8022 12925 1 0.16500 119244.000000
8022 13603 1 0.16500 119244.000000
8023 13604 1 0.16500 119244.000000
8023 15089 1 0.16500 119244.000000
8024 13604 1 0.16500 119244.000000
8024 14644 1 0.16500 119244.000000
8025 13605 1 0.16500 119244.000000
8025 16117 1 0.16500 119244.000000
8026 13605 1 0.16500 119244.000000
8026 15589 1 0.16500 119244.000000
8027 13605 1 0.16500 119244.000000
8027 15052 1 0.16500 119244.000000
8028 13606 1 0.16500 119244.000000
8028 15962 1 0.16500 119244.000000
8029 13607 1 0.16500 119244.000000
8029 13731 1 0.16500 119244.000000
8030 13607 1 0.16500 119244.000000
8030 16218 1 0.16500 119244.000000
8031 13607 1 0.16500 119244.000000
8031 13935 1 0.16500 119244.000000
8032 13607 1 0.16500 119244.000000
8032 15502 1 0.16500 119244.000000
8033 13608 1 0.16500 119244.000000
8033 14109 1 0.16500 119244.000000
8034 13608 1 0.16500 119244.000000
8034 14145 1 0.16500 119244.000000
8035 13608 1 0.16500 119244.000000
8035 14594 1 0.16500 119244.000000
8036 13609 1 0.16500 119244.000000
8036 14233 1 0.16500 119244.000000
8037 13609 1 0.16500 119244.000000
8037 14857 1 0.16500 119244.000000
8038 13610 1 0.16500 119244.000000
8038 15397 1 0.16500 119244.000000
8039 13610 1 0.16500 119244.000000
8039 15290 1 0.16500 119244.000000
8040 13611 1 0.16500 119244.000000
8040 15030 1 0.16500 119244.000000
8041 13611 1 0.16500 119244.000000
8041 13861 1 0.16500 119244.000000
8042 13612 1 0.16500 119244.000000
8042 13711 1 0.16500 119244.000000
8043 16535 1 0.16500 119244.000000
8043 18469 1 0.16500 119244.000000
8044 18469 1 0.16500 119244.000000
8044 20905 1 0.16500 119244.000000
8045 17851 1 0.16500 119244.000000
8045 19357 1 0.16500 119244.000000
8046 13613 1 0.16500 119244.000000
8046 16076 1 0.16500 119244.000000
8047 13614 1 0.16500 119244.000000
8047 15432 1 0.16500 119244.000000
8048 13614 1 0.16500 119244.000000
8048 15436 1 0.16500 119244.000000
8049 13615 1 0.16500 119244.000000
8049 14875 1 0.16500 119244.000000
8050 13615 1 0.16500 119244.000000
8050 15542 1 0.16500 119244.000000
8051 13616 1 0.16500 119244.000000
8051 14168 1 0.16500 119244.000000
8052 13616 1 0.16500 119244.000000
8052 13666 1 0.16500 119244.000000
8053 13618 1 0.16500 119244.000000
8053 15032 1 0.16500 119244.000000
8054 13618 1 0.16500 119244.000000
8054 21601 1 0.16500 119244.000000
8055 13619 1 0.16500 119244.000000
8055 14735 1 0.16500 119244.000000
8056 13619 1 0.16500 119244.000000
8056 14176 1 0.16500 119244.000000
8057 11639 1 0.16500 119244.000000
8057 13619 1 0.16500 119244.000000
8058 20653 1 0.16500 119244.000000
8058 21157 1 0.16500 119244.000000
8059 15116 1 0.16500 119244.000000
8059 21157 1 0.16500 119244.000000
8060 13620 1 0.16500 119244.000000
8060 15110 1 0.16500 119244.000000
8061 13620 1 0.16500 119244.000000
8061 14390 1 0.16500 119244.000000
8062 13621 1 0.16500 119244.000000
8062 14549 1 0.16500 119244.000000
8063 13622 1 0.16500 119244.000000
8063 15491 1 0.16500 119244.000000
8064 13623 1 0.16500 119244.000000
8064 15750 1 0.16500 119244.000000
8065 13623 1 0.16500 119244.000000
8065 15848 1 0.16500 119244.000000
8066 13623 1 0.16500 119244.000000
8066 14169 1 0.16500 119244.000000
8067 20953 1 0.16500 119244.000000
8067 24412 1 0.16500 119244.000000
8068 13624 1 0.16500 119244.000000
8068 13853 1 0.16500 119244.000000
8069 13624 1 0.16500 119244.000000
8069 15203 1 0.16500 119244.000000
8070 13625 1 0.16500 119244.000000
8070 14819 1 0.16500 119244.000000
8071 13625 1 0.16500 119244.000000
8071 14064 1 0.16500 119244.000000
8072 13626 1 0.16500 119244.000000
8072 15197 1 0.16500 119244.000000
8073 13627 1 0.16500 119244.000000
8073 16056 1 0.16500 119244.000000
8074 13628 1 0.16500 119244.000000
8074 14825 1 0.16500 119244.000000
8075 13629 1 0.16500 119244.000000
8075 14004 1 0.16500 119244.000000
8076 13629 1 0.16500 119244.000000
8076 14715 1 0.16500 119244.000000
8077 13629 1 0.16500 119244.000000
8077 15376 1 0.16500 119244.000000
8078 13630 1 0.16500 119244.000000
8078 13817 1 0.16500 119244.000000
8079 13630 1 0.16500 119244.000000
8079 14915 1 0.16500 119244.000000
8080 13630 1 0.16500 119244.000000
8080 14606 1 0.16500 119244.000000
8081 20761 1 0.16500 119244.000000
8081 23533 1 0.16500 119244.000000
8082 13631 1 0.16500 119244.000000
8082 15160 1 0.16500 119244.000000
8083 13631 1 0.16500 119244.000000
8083 14762 1 0.16500 119244.000000
8084 13280 1 0.16500 119244.000000
8084 21385 1 0.16500 119244.000000
8085 13632 1 0.16500 119244.000000
8085 14995 1 0.16500 119244.000000
8086 13632 1 0.16500 119244.000000
8086 14465 1 0.16500 119244.000000
8087 13633 1 0.16500 119244.000000
8087 14922 1 0.16500 119244.000000
8088 13633 1 0.16500 119244.000000
8088 14868 1 0.16500 119244.000000
8089 14230 1 0.16500 119244.000000
8089 22489 1 0.16500 119244.000000
8090 12419 1 0.16500 119244.000000
8090 22489 1 0.16500 119244.000000
8091 19009 1 0.16500 119244.000000
8091 23953 1 0.16500 119244.000000
8092 14541 1 0.16500 119244.000000
8092 23953 1 0.16500 119244.000000
8093 17109 1 0.16500 119244.000000
8093 23953 1 0.16500 119244.000000
8094 13634 1 0.16500 119244.000000
8094 13979 1 0.16500 119244.000000
8095 13634 1 0.16500 119244.000000
8095 22813 1 0.16500 119244.000000
8096 13635 1 0.16500 119244.000000
8096 15456 1 0.16500 119244.000000
8097 13635 1 0.16500 119244.000000
8097 24289 1 0.16500 119244.000000
8098 13636 1 0.16500 119244.000000
8098 15759 1 0.16500 119244.000000
8099 15349 1 0.16500 119244.000000
8099 15681 1 0.16500 119244.000000
8100 13636 1 0.16500 119244.000000
8100 13842 1 0.16500 119244.000000
8101 13636 1 0.16500 119244.000000
8101 15681 1 0.16500 119244.000000
8102 13637 1 0.16500 119244.000000
8102 14581 1 0.16500 119244.000000
8103 13637 1 0.16500 119244.000000
8103 15663 1 0.16500 119244.000000
8104 13637 1 0.16500 119244.000000
8104 13742 1 0.16500 119244.000000
8105 14140 1 0.16500 119244.000000
8105 23353 1 0.16500 119244.000000
8106 13639 1 0.16500 119244.000000
8106 14140 1 0.16500 119244.000000
8107 13641 1 0.16500 119244.000000
8107 15385 1 0.16500 119244.000000
8108 13642 1 0.16500 119244.000000
8108 14522 1 0.16500 119244.000000
8109 13642 1 0.16500 119244.000000
8109 15645 1 0.16500 119244.000000
8110 13642 1 0.16500 119244.000000
8110 16092 1 0.16500 119244.000000
8111 13643 1 0.16500 119244.000000
8111 19369 1 0.16500 119244.000000
8112 13643 1 0.16500 119244.000000
8112 15641 1 0.16500 119244.000000
8113 13644 1 0.16500 119244.000000
8113 15125 1 0.16500 119244.000000
8114 13644 1 0.16500 119244.000000
8114 13652 1 0.16500 119244.000000
8115 12042 1 0.16500 119244.000000
8115 15020 1 0.16500 119244.000000
8116 13645 1 0.16500 119244.000000
8116 16135 1 0.16500 119244.000000
8117 13646 1 0.16500 119244.000000
8117 14873 1 0.16500 119244.000000
8118 13646 1 0.16500 119244.000000
8118 15115 1 0.16500 119244.000000
8119 13647 1 0.16500 119244.000000
8119 15843 1 0.16500 119244.000000
8120 13647 1 0.16500 119244.000000
8120 15523 1 0.16500 119244.000000
8121 13647 1 0.16500 119244.000000
8121 15774 1 0.16500 119244.000000
8122 13265 1 0.16500 119244.000000
8122 13648 1 0.16500 119244.000000
8123 13649 1 0.16500 119244.000000
8123 15738 1 0.16500 119244.000000
8124 13649 1 0.16500 119244.000000
8124 15904 1 0.16500 119244.000000
8125 13650 1 0.16500 119244.000000
8125 13855 1 0.16500 119244.000000
8126 13650 1 0.16500 119244.000000
8126 15809 1 0.16500 119244.000000
8127 13651 1 0.16500 119244.000000
8127 16162 1 0.16500 119244.000000
8128 13651 1 0.16500 119244.000000
8128 15123 1 0.16500 119244.000000
8129 13651 1 0.16500 119244.000000
8129 14036 1 0.16500 119244.000000
8130 13652 1 0.16500 119244.000000
8130 15885 1 0.16500 119244.000000
8131 13652 1 0.16500 119244.000000
8131 14296 1 0.16500 119244.000000
8132 13653 1 0.16500 119244.000000
8132 14372 1 0.16500 119244.000000
8133 13653 1 0.16500 119244.000000
8133 16073 1 0.16500 119244.000000
8134 13654 1 0.16500 119244.000000
8134 14765 1 0.16500 119244.000000
8135 13654 1 0.16500 119244.000000
8135 14754 1 0.16500 119244.000000
8136 13655 1 0.16500 119244.000000
8136 13679 1 0.16500 119244.000000
8137 13655 1 0.16500 119244.000000
8137 14433 1 0.16500 119244.000000
8138 13655 1 0.16500 119244.000000
8138 15392 1 0.16500 119244.000000
8139 13656 1 0.16500 119244.000000
8139 15973 1 0.16500 119244.000000
8140 13656 1 0.16500 119244.000000
8140 15268 1 0.16500 119244.000000
8141 13656 1 0.16500 119244.000000
8141 15099 1 0.16500 119244.000000
8142 13657 1 0.16500 119244.000000
8142 15670 1 0.16500 119244.000000
8143 13658 1 0.16500 119244.000000
8143 14661 1 0.16500 119244.000000
8144 13658 1 0.16500 119244.000000
8144 14686 1 0.16500 119244.000000
8145 13659 1 0.16500 119244.000000
8145 15862 1 0.16500 119244.000000
8146 13660 1 0.16500 119244.000000
8146 14650 1 0.16500 119244.000000
8147 13660 1 0.16500 119244.000000
8147 15870 1 0.16500 119244.000000
8148 14089 1 0.16500 119244.000000
8148 15692 1 0.16500 119244.000000
8149 13661 1 0.16500 119244.000000
8149 15692 1 0.16500 119244.000000
8150 13492 1 0.16500 119244.000000
8150 15460 1 0.16500 119244.000000
8151 13662 1 0.16500 119244.000000
8151 13784 1 0.16500 119244.000000
8152 13662 1 0.16500 119244.000000
8152 15272 1 0.16500 119244.000000
8153 14623 1 0.16500 119244.000000
8153 23959 1 0.16500 119244.000000
8154 13663 1 0.16500 119244.000000
8154 14815 1 0.16500 119244.000000
8155 13663 1 0.16500 119244.000000
8155 14947 1 0.16500 119244.000000
8156 14815 1 0.16500 119244.000000
8156 15265 1 0.16500 119244.000000
8157 13663 1 0.16500 119244.000000
8157 14120 1 0.16500 119244.000000
8158 13664 1 0.16500 119244.000000
8158 14554 1 0.16500 119244.000000
8159 13664 1 0.16500 119244.000000
8159 16120 1 0.16500 119244.000000
8160 13665 1 0.16500 119244.000000
8160 16275 1 0.16500 119244.000000
8161 11597 1 0.16500 119244.000000
8161 14347 1 0.16500 119244.000000
8162 11597 1 0.16500 119244.000000
8162 13665 1 0.16500 119244.000000
8163 13666 1 0.16500 119244.000000
8163 13819 1 0.16500 119244.000000
8164 13666 1 0.16500 119244.000000
8164 15617 1 0.16500 119244.000000
8165 13667 1 0.16500 119244.000000
8165 15127 1 0.16500 119244.000000
8166 11592 1 0.16500 119244.000000
8166 15928 1 0.16500 119244.000000
8167 13668 1 0.16500 119244.000000
8167 15947 1 0.16500 119244.000000
8168 13669 1 0.16500 119244.000000
8168 14217 1 0.16500 119244.000000
8169 13670 1 0.16500 119244.000000
8169 14647 1 0.16500 119244.000000
8170 13670 1 0.16500 119244.000000
8170 15926 1 0.16500 119244.000000
8171 13670 1 0.16500 119244.000000
8171 13839 1 0.16500 119244.000000
8172 13671 1 0.16500 119244.000000
8172 14986 1 0.16500 119244.000000
8173 13671 1 0.16500 119244.000000
8173 18493 1 0.16500 119244.000000
8174 13671 1 0.16500 119244.000000
8174 15384 1 0.16500 119244.000000
8175 13672 1 0.16500 119244.000000
8175 13937 1 0.16500 119244.000000
8176 13672 1 0.16500 119244.000000
8176 14796 1 0.16500 119244.000000
8177 13672 1 0.16500 119244.000000
8177 14713 1 0.16500 119244.000000
8178 13672 1 0.16500 119244.000000
8178 14638 1 0.16500 119244.000000
8179 13673 1 0.16500 119244.000000
8179 15413 1 0.16500 119244.000000
8180 13673 1 0.16500 119244.000000
8180 14651 1 0.16500 119244.000000
8181 13673 1 0.16500 119244.000000
8181 14412 1 0.16500 119244.000000
8182 13673 1 0.16500 119244.000000
8182 15009 1 0.16500 119244.000000
8183 13674 1 0.16500 119244.000000
8183 15634 1 0.16500 119244.000000
8184 13674 1 0.16500 119244.000000
8184 14430 1 0.16500 119244.000000
8185 13675 1 0.16500 119244.000000
8185 15553 1 0.16500 119244.000000
8186 13676 1 0.16500 119244.000000
8186 13733 1 0.16500 119244.000000
8187 13676 1 0.16500 119244.000000
8187 16001 1 0.16500 119244.000000
8188 13676 1 0.16500 119244.000000
8188 15261 1 0.16500 119244.000000
8189 13677 1 0.16500 119244.000000
8189 14821 1 0.16500 119244.000000
8190 13677 1 0.16500 119244.000000
8190 14645 1 0.16500 119244.000000
8191 13677 1 0.16500 119244.000000
8191 14773 1 0.16500 119244.000000
8192 13678 1 0.16500 119244.000000
8192 14210 1 0.16500 119244.000000
8193 13678 1 0.16500 119244.000000
8193 13790 1 0.16500 119244.000000
8194 13678 1 0.16500 119244.000000
8194 14711 1 0.16500 119244.000000
8195 13679 1 0.16500 119244.000000
8195 14671 1 0.16500 119244.000000
8196 13679 1 0.16500 119244.000000
8196 14055 1 0.16500 119244.000000
8197 13680 1 0.16500 119244.000000
8197 15126 1 0.16500 119244.000000
8198 18829 1 0.16500 119244.000000
8198 24417 1 0.16500 119244.000000
8199 13681 1 0.16500 119244.000000
8199 13703 1 0.16500 119244.000000
8200 13681 1 0.16500 119244.000000
8200 14834 1 0.16500 119244.000000
8201 13681 1 0.16500 119244.000000
8201 15914 1 0.16500 119244.000000
8202 13682 1 0.16500 119244.000000
8202 15050 1 0.16500 119244.000000
8203 13683 1 0.16500 119244.000000
8203 14263 1 0.16500 119244.000000
8204 13683 1 0.16500 119244.000000
8204 14211 1 0.16500 119244.000000
8205 13684 1 0.16500 119244.000000
8205 15963 1 0.16500 119244.000000
8206 13684 1 0.16500 119244.000000
8206 16173 1 0.16500 119244.000000
8207 13684 1 0.16500 119244.000000
8207 15363 1 0.16500 119244.000000
8208 13685 1 0.16500 119244.000000
8208 15749 1 0.16500 119244.000000
8209 13685 1 0.16500 119244.000000
8209 15678 1 0.16500 119244.000000
8210 13686 1 0.16500 119244.000000
8210 20809 1 0.16500 119244.000000
8211 12226 1 0.16500 119244.000000
8211 13896 1 0.16500 119244.000000
8212 18625 1 0.16500 119244.000000
8212 23791 1 0.16500 119244.000000
8213 13688 1 0.16500 119244.000000
8213 21601 1 0.16500 119244.000000
8214 13689 1 0.16500 119244.000000
8214 15283 1 0.16500 119244.000000
8215 13689 1 0.16500 119244.000000
8215 14407 1 0.16500 119244.000000
8216 14218 1 0.16500 119244.000000
8216 16185 1 0.16500 119244.000000
8217 13690 1 0.16500 119244.000000
8217 14218 1 0.16500 119244.000000
8218 13691 1 0.16500 119244.000000
8218 16048 1 0.16500 119244.000000
8219 13691 1 0.16500 119244.000000
8219 14487 1 0.16500 119244.000000
8220 13692 1 0.16500 119244.000000
8220 15357 1 0.16500 119244.000000
8221 15522 1 0.16500 119244.000000
8221 23962 1 0.16500 119244.000000
8222 15379 1 0.16500 119244.000000
8222 23317 1 0.16500 119244.000000
8223 13693 1 0.16500 119244.000000
8223 15372 1 0.16500 119244.000000
8224 13693 1 0.16500 119244.000000
8224 14924 1 0.16500 119244.000000
8225 13693 1 0.16500 119244.000000
8225 16256 1 0.16500 119244.000000
8226 13694 1 0.16500 119244.000000
8226 15861 1 0.16500 119244.000000
8227 13694 1 0.16500 119244.000000
8227 13914 1 0.16500 119244.000000
8228 13694 1 0.16500 119244.000000
8228 15891 1 0.16500 119244.000000
8229 13696 1 0.16500 119244.000000
8229 15084 1 0.16500 119244.000000
8230 13696 1 0.16500 119244.000000
8230 16215 1 0.16500 119244.000000
8231 13696 1 0.16500 119244.000000
8231 13878 1 0.16500 119244.000000
8232 13696 1 0.16500 119244.000000
8232 14374 1 0.16500 119244.000000
8233 13697 1 0.16500 119244.000000
8233 15643 1 0.16500 119244.000000
8234 13697 1 0.16500 119244.000000
8234 24199 1 0.16500 119244.000000
8235 13698 1 0.16500 119244.000000
8235 14491 1 0.16500 119244.000000
8236 13698 1 0.16500 119244.000000
8236 15833 1 0.16500 119244.000000
8237 18721 1 0.16500 119244.000000
8237 18997 1 0.16500 119244.000000
8238 13699 1 0.16500 119244.000000
8238 16167 1 0.16500 119244.000000
8239 13699 1 0.16500 119244.000000
8239 15277 1 0.16500 119244.000000
8240 14443 1 0.16500 119244.000000
8240 16060 1 0.16500 119244.000000
8241 13700 1 0.16500 119244.000000
8241 14710 1 0.16500 119244.000000
8242 13700 1 0.16500 119244.000000
8242 16060 1 0.16500 119244.000000
8243 13701 1 0.16500 119244.000000
8243 14641 1 0.16500 119244.000000
8244 13701 1 0.16500 119244.000000
8244 13854 1 0.16500 119244.000000
8245 13701 1 0.16500 119244.000000
8245 15230 1 0.16500 119244.000000
8246 14638 1 0.16500 119244.000000
8246 23965 1 0.16500 119244.000000
8247 13702 1 0.16500 119244.000000
8247 15167 1 0.16500 119244.000000
8248 13703 1 0.16500 119244.000000
8248 14035 1 0.16500 119244.000000
8249 13704 1 0.16500 119244.000000
8249 15120 1 0.16500 119244.000000
8250 13704 1 0.16500 119244.000000
8250 15792 1 0.16500 119244.000000
8251 13704 1 0.16500 119244.000000
8251 14706 1 0.16500 119244.000000
8252 13704 1 0.16500 119244.000000
8252 14060 1 0.16500 119244.000000
8253 13705 1 0.16500 119244.000000
8253 15544 1 0.16500 119244.000000
8254 13705 1 0.16500 119244.000000
8254 14163 1 0.16500 119244.000000
8255 13705 1 0.16500 119244.000000
8255 16248 1 0.16500 119244.000000
8256 13706 1 0.16500 119244.000000
8256 15244 1 0.16500 119244.000000
8257 13706 1 0.16500 119244.000000
8257 13812 1 0.16500 119244.000000
8258 13706 1 0.16500 119244.000000
8258 14131 1 0.16500 119244.000000
8259 15337 1 0.16500 119244.000000
8259 17151 1 0.16500 119244.000000
8260 13707 1 0.16500 119244.000000
8260 15141 1 0.16500 119244.000000
8261 13707 1 0.16500 119244.000000
8261 14923 1 0.16500 119244.000000
8262 15647 1 0.16500 119244.000000
8262 21145 1 0.16500 119244.000000
8263 13708 1 0.16500 119244.000000
8263 14151 1 0.16500 119244.000000
8264 13708 1 0.16500 119244.000000
8264 15299 1 0.16500 119244.000000
8265 15045 1 0.16500 119244.000000
8265 23473 1 0.16500 119244.000000
8266 13709 1 0.16500 119244.000000
8266 15688 1 0.16500 119244.000000
8267 13709 1 0.16500 119244.000000
8267 15787 1 0.16500 119244.000000
8268 13709 1 0.16500 119244.000000
8268 16267 1 0.16500 119244.000000
8269 13710 1 0.16500 119244.000000
8269 14737 1 0.16500 119244.000000
8270 13710 1 0.16500 119244.000000
8270 15809 1 0.16500 119244.000000
8271 13710 1 0.16500 119244.000000
8271 14052 1 0.16500 119244.000000
8272 13711 1 0.16500 119244.000000
8272 15501 1 0.16500 119244.000000
8273 13712 1 0.16500 119244.000000
8273 16278 1 0.16500 119244.000000
8274 13713 1 0.16500 119244.000000
8274 15752 1 0.16500 119244.000000
8275 13714 1 0.16500 119244.000000
8275 22261 1 0.16500 119244.000000
8276 15687 1 0.16500 119244.000000
8276 17879 1 0.16500 119244.000000
8277 13022 1 0.16500 119244.000000
8277 14258 1 0.16500 119244.000000
8278 13715 1 0.16500 119244.000000
8278 15008 1 0.16500 119244.000000
8279 13022 1 0.16500 119244.000000
8279 14714 1 0.16500 119244.000000
8280 13716 1 0.16500 119244.000000
8280 15956 1 0.16500 119244.000000
8281 13717 1 0.16500 119244.000000
8281 15855 1 0.16500 119244.000000
8282 13717 1 0.16500 119244.000000
8282 14054 1 0.16500 119244.000000
8283 14054 1 0.16500 119244.000000
8283 14484 1 0.16500 119244.000000
8284 13718 1 0.16500 119244.000000
8284 15474 1 0.16500 119244.000000
8285 13718 1 0.16500 119244.000000
8285 14010 1 0.16500 119244.000000
8286 13718 1 0.16500 119244.000000
8286 14731 1 0.16500 119244.000000
8287 13718 1 0.16500 119244.000000
8287 13917 1 0.16500 119244.000000
8288 14805 1 0.16500 119244.000000
8288 24422 1 0.16500 119244.000000
8289 20185 1 0.16500 119244.000000
8289 24422 1 0.16500 119244.000000
8290 13719 1 0.16500 119244.000000
8290 16563 1 0.16500 119244.000000
8291 13719 1 0.16500 119244.000000
8291 16212 1 0.16500 119244.000000
8292 13720 1 0.16500 119244.000000
8292 15180 1 0.16500 119244.000000
8293 13720 1 0.16500 119244.000000
8293 14154 1 0.16500 119244.000000
8294 19537 1 0.16500 119244.000000
8294 23857 1 0.16500 119244.000000
8295 13721 1 0.16500 119244.000000
8295 15822 1 0.16500 119244.000000
8296 13721 1 0.16500 119244.000000
8296 17417 1 0.16500 119244.000000
8297 13722 1 0.16500 119244.000000
8297 14324 1 0.16500 119244.000000
8298 19609 1 0.16500 119244.000000
8298 24235 1 0.16500 119244.000000
8299 13723 1 0.16500 119244.000000
8299 14697 1 0.16500 119244.000000
8300 13723 1 0.16500 119244.000000
8300 14347 1 0.16500 119244.000000
8301 13723 1 0.16500 119244.000000
8301 15167 1 0.16500 119244.000000
8302 13724 1 0.16500 119244.000000
8302 14589 1 0.16500 119244.000000
8303 13724 1 0.16500 119244.000000
8303 15899 1 0.16500 119244.000000
8304 13724 1 0.16500 119244.000000
8304 24244 1 0.16500 119244.000000
8305 13725 1 0.16500 119244.000000
8305 15347 1 0.16500 119244.000000
8306 13725 1 0.16500 119244.000000
8306 14370 1 0.16500 119244.000000
8307 13726 1 0.16500 119244.000000
8307 13967 1 0.16500 119244.000000
8308 13726 1 0.16500 119244.000000
8308 15962 1 0.16500 119244.000000
8309 13727 1 0.16500 119244.000000
8309 15018 1 0.16500 119244.000000
8310 13727 1 0.16500 119244.000000
8310 16121 1 0.16500 119244.000000
8311 13727 1 0.16500 119244.000000
8311 15979 1 0.16500 119244.000000
8312 13728 1 0.16500 119244.000000
8312 16251 1 0.16500 119244.000000
8313 13728 1 0.16500 119244.000000
8313 15090 1 0.16500 119244.000000
8314 12778 1 0.16500 119244.000000
8314 15977 1 0.16500 119244.000000
8315 14574 1 0.16500 119244.000000
8315 15090 1 0.16500 119244.000000
8316 13729 1 0.16500 119244.000000
8316 15472 1 0.16500 119244.000000
8317 13729 1 0.16500 119244.000000
8317 14933 1 0.16500 119244.000000
8318 13729 1 0.16500 119244.000000
8318 13843 1 0.16500 119244.000000
8319 13729 1 0.16500 119244.000000
8319 16146 1 0.16500 119244.000000
8320 13730 1 0.16500 119244.000000
8320 14205 1 0.16500 119244.000000
8321 13731 1 0.16500 119244.000000
8321 15826 1 0.16500 119244.000000
8322 13731 1 0.16500 119244.000000
8322 14104 1 0.16500 119244.000000
8323 13732 1 0.16500 119244.000000
8323 14371 1 0.16500 119244.000000
8324 13732 1 0.16500 119244.000000
8324 14339 1 0.16500 119244.000000
8325 13733 1 0.16500 119244.000000
8325 14812 1 0.16500 119244.000000
8326 13733 1 0.16500 119244.000000
8326 15993 1 0.16500 119244.000000
8327 13734 1 0.16500 119244.000000
8327 14512 1 0.16500 119244.000000
8328 13734 1 0.16500 119244.000000
8328 15486 1 0.16500 119244.000000
8329 13734 1 0.16500 119244.000000
8329 15129 1 0.16500 119244.000000
8330 11966 1 0.16500 119244.000000
8330 13734 1 0.16500 119244.000000
8331 17501 1 0.16500 119244.000000
8331 20689 1 0.16500 119244.000000
8332 16126 1 0.16500 119244.000000
8332 20689 1 0.16500 119244.000000
8333 13735 1 0.16500 119244.000000
8333 15873 1 0.16500 119244.000000
8334 13735 1 0.16500 119244.000000
8334 14012 1 0.16500 119244.000000
8335 13735 1 0.16500 119244.000000
8335 15921 1 0.16500 119244.000000
8336 13736 1 0.16500 119244.000000
8336 16248 1 0.16500 119244.000000
8337 13736 1 0.16500 119244.000000
8337 15267 1 0.16500 119244.000000
8338 13736 1 0.16500 119244.000000
8338 13835 1 0.16500 119244.000000
8339 13736 1 0.16500 119244.000000
8339 14714 1 0.16500 119244.000000
8340 13737 1 0.16500 119244.000000
8340 14307 1 0.16500 119244.000000
8341 13737 1 0.16500 119244.000000
8341 15171 1 0.16500 119244.000000
8342 13738 1 0.16500 119244.000000
8342 14613 1 0.16500 119244.000000
8343 13739 1 0.16500 119244.000000
8343 13828 1 0.16500 119244.000000
8344 13739 1 0.16500 119244.000000
8344 15491 1 0.16500 119244.000000
8345 13739 1 0.16500 119244.000000
8345 15520 1 0.16500 119244.000000
8346 13740 1 0.16500 119244.000000
8346 15926 1 0.16500 119244.000000
8347 13740 1 0.16500 119244.000000
8347 16149 1 0.16500 119244.000000
8348 13741 1 0.16500 119244.000000
8348 15123 1 0.16500 119244.000000
8349 13741 1 0.16500 119244.000000
8349 14853 1 0.16500 119244.000000
8350 13741 1 0.16500 119244.000000
8350 15134 1 0.16500 119244.000000
8351 13743 1 0.16500 119244.000000
8351 14895 1 0.16500 119244.000000
8352 13743 1 0.16500 119244.000000
8352 15924 1 0.16500 119244.000000
8353 13743 1 0.16500 119244.000000
8353 13821 1 0.16500 119244.000000
8354 13744 1 0.16500 119244.000000
8354 15143 1 0.16500 119244.000000
8355 13745 1 0.16500 119244.000000
8355 14729 1 0.16500 119244.000000
8356 13745 1 0.16500 119244.000000
8356 14278 1 0.16500 119244.000000
8357 13746 1 0.16500 119244.000000
8357 14264 1 0.16500 119244.000000
8358 13746 1 0.16500 119244.000000
8358 15910 1 0.16500 119244.000000
8359 13747 1 0.16500 119244.000000
8359 14846 1 0.16500 119244.000000
8360 13747 1 0.16500 119244.000000
8360 14076 1 0.16500 119244.000000
8361 13747 1 0.16500 119244.000000
8361 21541 1 0.16500 119244.000000
8362 13748 1 0.16500 119244.000000
8362 14579 1 0.16500 119244.000000
8363 13749 1 0.16500 119244.000000
8363 24136 1 0.16500 119244.000000
8364 13749 1 0.16500 119244.000000
8364 15291 1 0.16500 119244.000000
8365 13749 1 0.16500 119244.000000
8365 16025 1 0.16500 119244.000000
8366 13750 1 0.16500 119244.000000
8366 14121 1 0.16500 119244.000000
8367 13750 1 0.16500 119244.000000
8367 13776 1 0.16500 119244.000000
8368 20233 1 0.16500 119244.000000
8368 24007 1 0.16500 119244.000000
8369 13781 1 0.16500 119244.000000
8369 20233 1 0.16500 119244.000000
8370 14150 1 0.16500 119244.000000
8370 20233 1 0.16500 119244.000000
8371 20029 1 0.16500 119244.000000
8371 22777 1 0.16500 119244.000000
8372 13751 1 0.16500 119244.000000
8372 24064 1 0.16500 119244.000000
8373 15944 1 0.16500 119244.000000
8373 18721 1 0.16500 119244.000000
8374 13752 1 0.16500 119244.000000
8374 15850 1 0.16500 119244.000000
8375 13752 1 0.16500 119244.000000
8375 19789 1 0.16500 119244.000000
8376 15698 1 0.16500 119244.000000
8376 23653 1 0.16500 119244.000000
8377 13753 1 0.16500 119244.000000
8377 14235 1 0.16500 119244.000000
8378 13754 1 0.16500 119244.000000
8378 15724 1 0.16500 119244.000000
8379 13755 1 0.16500 119244.000000
8379 15497 1 0.16500 119244.000000
8380 13755 1 0.16500 119244.000000
8380 16022 1 0.16500 119244.000000
8381 14078 1 0.16500 119244.000000
8381 19417 1 0.16500 119244.000000
8382 13756 1 0.16500 119244.000000
8382 16234 1 0.16500 119244.000000
8383 11555 1 0.16500 119244.000000
8383 13756 1 0.16500 119244.000000
8384 13757 1 0.16500 119244.000000
8384 14622 1 0.16500 119244.000000
8385 13758 1 0.16500 119244.000000
8385 14042 1 0.16500 119244.000000
8386 13759 1 0.16500 119244.000000
8386 13875 1 0.16500 119244.000000
8387 13759 1 0.16500 119244.000000
8387 15680 1 0.16500 119244.000000
8388 13759 1 0.16500 119244.000000
8388 14925 1 0.16500 119244.000000
8389 13760 1 0.16500 119244.000000
8389 14201 1 0.16500 119244.000000
8390 13761 1 0.16500 119244.000000
8390 14836 1 0.16500 119244.000000
8391 13761 1 0.16500 119244.000000
8391 24130 1 0.16500 119244.000000
8392 13762 1 0.16500 119244.000000
8392 14290 1 0.16500 119244.000000
8393 13762 1 0.16500 119244.000000
8393 15232 1 0.16500 119244.000000
8394 13763 1 0.16500 119244.000000
8394 16222 1 0.16500 119244.000000
8395 13763 1 0.16500 119244.000000
8395 14136 1 0.16500 119244.000000
8396 13763 1 0.16500 119244.000000
8396 14690 1 0.16500 119244.000000
8397 13764 1 0.16500 119244.000000
8397 14093 1 0.16500 119244.000000
8398 13764 1 0.16500 119244.000000
8398 16057 1 0.16500 119244.000000
8399 13765 1 0.16500 119244.000000
8399 15529 1 0.16500 119244.000000
8400 13765 1 0.16500 119244.000000
8400 14886 1 0.16500 119244.000000
8401 13766 1 0.16500 119244.000000
8401 16096 1 0.16500 119244.000000
8402 13766 1 0.16500 119244.000000
8402 15731 1 0.16500 119244.000000
8403 13768 1 0.16500 119244.000000
8403 15766 1 0.16500 119244.000000
8404 14423 1 0.16500 119244.000000
8404 23968 1 0.16500 119244.000000
8405 17725 1 0.16500 119244.000000
8405 23968 1 0.16500 119244.000000
8406 13769 1 0.16500 119244.000000
8406 16233 1 0.16500 119244.000000
8407 13769 1 0.16500 119244.000000
8407 23989 1 0.16500 119244.000000
8408 13770 1 0.16500 119244.000000
8408 15061 1 0.16500 119244.000000
8409 13770 1 0.16500 119244.000000
8409 14878 1 0.16500 119244.000000
8410 13770 1 0.16500 119244.000000
8410 14303 1 0.16500 119244.000000
8411 13771 1 0.16500 119244.000000
8411 15556 1 0.16500 119244.000000
8412 19405 1 0.16500 119244.000000
8412 23623 1 0.16500 119244.000000
8413 13772 1 0.16500 119244.000000
8413 23293 1 0.16500 119244.000000
8414 13772 1 0.16500 119244.000000
8414 13836 1 0.16500 119244.000000
8415 13773 1 0.16500 119244.000000
8415 14781 1 0.16500 119244.000000
8416 13773 1 0.16500 119244.000000
8416 15358 1 0.16500 119244.000000
8417 13773 1 0.16500 119244.000000
8417 15586 1 0.16500 119244.000000
8418 13774 1 0.16500 119244.000000
8418 15014 1 0.16500 119244.000000
8419 13774 1 0.16500 119244.000000
8419 13925 1 0.16500 119244.000000
8420 13774 1 0.16500 119244.000000
8420 15925 1 0.16500 119244.000000
8421 12602 1 0.16500 119244.000000
8421 15075 1 0.16500 119244.000000
8422 13775 1 0.16500 119244.000000
8422 14389 1 0.16500 119244.000000
8423 13776 1 0.16500 119244.000000
8423 15438 1 0.16500 119244.000000
8424 13776 1 0.16500 119244.000000
8424 14100 1 0.16500 119244.000000
8425 13776 1 0.16500 119244.000000
8425 15070 1 0.16500 119244.000000
8426 14511 1 0.16500 119244.000000
8426 16023 1 0.16500 119244.000000
8427 13777 1 0.16500 119244.000000
8427 16023 1 0.16500 119244.000000
8428 14309 1 0.16500 119244.000000
8428 16023 1 0.16500 119244.000000
8429 15983 1 0.16500 119244.000000
8429 24247 1 0.16500 119244.000000
8430 13778 1 0.16500 119244.000000
8430 14494 1 0.16500 119244.000000
8431 13778 1 0.16500 119244.000000
8431 15983 1 0.16500 119244.000000
8432 13779 1 0.16500 119244.000000
8432 15980 1 0.16500 119244.000000
8433 13779 1 0.16500 119244.000000
8433 14905 1 0.16500 119244.000000
8434 13780 1 0.16500 119244.000000
8434 15928 1 0.16500 119244.000000
8435 13780 1 0.16500 119244.000000
8435 14937 1 0.16500 119244.000000
8436 15076 1 0.16500 119244.000000
8436 15928 1 0.16500 119244.000000
8437 14681 1 0.16500 119244.000000
8437 15312 1 0.16500 119244.000000
8438 13781 1 0.16500 119244.000000
8438 24073 1 0.16500 119244.000000
8439 13781 1 0.16500 119244.000000
8439 15312 1 0.16500 119244.000000
8440 13782 1 0.16500 119244.000000
8440 15460 1 0.16500 119244.000000
8441 13782 1 0.16500 119244.000000
8441 14266 1 0.16500 119244.000000
8442 13783 1 0.16500 119244.000000
8442 15026 1 0.16500 119244.000000
8443 13784 1 0.16500 119244.000000
8443 14528 1 0.16500 119244.000000
8444 13785 1 0.16500 119244.000000
8444 24259 1 0.16500 119244.000000
8445 13786 1 0.16500 119244.000000
8445 13817 1 0.16500 119244.000000
8446 13786 1 0.16500 119244.000000
8446 15824 1 0.16500 119244.000000
8447 13786 1 0.16500 119244.000000
8447 14601 1 0.16500 119244.000000
8448 13787 1 0.16500 119244.000000
8448 14899 1 0.16500 119244.000000
8449 13787 1 0.16500 119244.000000
8449 15471 1 0.16500 119244.000000
8450 15471 1 0.16500 119244.000000
8450 15587 1 0.16500 119244.000000
8451 13788 1 0.16500 119244.000000
8451 15827 1 0.16500 119244.000000
8452 13788 1 0.16500 119244.000000
8452 14234 1 0.16500 119244.000000
8453 13788 1 0.16500 119244.000000
8453 15048 1 0.16500 119244.000000
8454 15827 1 0.16500 119244.000000
8454 15878 1 0.16500 119244.000000
8455 13789 1 0.16500 119244.000000
8455 14738 1 0.16500 119244.000000
8456 11471 1 0.16500 119244.000000
8456 15217 1 0.16500 119244.000000
8457 13791 1 0.16500 119244.000000
8457 15386 1 0.16500 119244.000000
8458 13791 1 0.16500 119244.000000
8458 14901 1 0.16500 119244.000000
8459 17263 1 0.16500 119244.000000
8459 18517 1 0.16500 119244.000000
8460 13792 1 0.16500 119244.000000
8460 16031 1 0.16500 119244.000000
8461 14142 1 0.16500 119244.000000
8461 16031 1 0.16500 119244.000000
8462 13793 1 0.16500 119244.000000
8462 14984 1 0.16500 119244.000000
8463 13793 1 0.16500 119244.000000
8463 14412 1 0.16500 119244.000000
8464 13793 1 0.16500 119244.000000
8464 14929 1 0.16500 119244.000000
8465 13794 1 0.16500 119244.000000
8465 14435 1 0.16500 119244.000000
8466 13794 1 0.16500 119244.000000
8466 15257 1 0.16500 119244.000000
8467 13795 1 0.16500 119244.000000
8467 16197 1 0.16500 119244.000000
8468 13796 1 0.16500 119244.000000
8468 14905 1 0.16500 119244.000000
8469 13410 1 0.16500 119244.000000
8469 13796 1 0.16500 119244.000000
8470 13796 1 0.16500 119244.000000
8470 15802 1 0.16500 119244.000000
8471 13796 1 0.16500 119244.000000
8471 15136 1 0.16500 119244.000000
8472 13797 1 0.16500 119244.000000
8472 15725 1 0.16500 119244.000000
8473 15937 1 0.16500 119244.000000
8473 23425 1 0.16500 119244.000000
8474 14912 1 0.16500 119244.000000
8474 23425 1 0.16500 119244.000000
8475 13799 1 0.16500 119244.000000
8475 14726 1 0.16500 119244.000000
8476 13800 1 0.16500 119244.000000
8476 13886 1 0.16500 119244.000000
8477 13800 1 0.16500 119244.000000
8477 15620 1 0.16500 119244.000000
8478 13801 1 0.16500 119244.000000
8478 14766 1 0.16500 119244.000000
8479 13801 1 0.16500 119244.000000
8479 16228 1 0.16500 119244.000000
8480 13801 1 0.16500 119244.000000
8480 16210 1 0.16500 119244.000000
8481 13802 1 0.16500 119244.000000
8481 14274 1 0.16500 119244.000000
8482 13802 1 0.16500 119244.000000
8482 15108 1 0.16500 119244.000000
8483 13803 1 0.16500 119244.000000
8483 19657 1 0.16500 119244.000000
8484 13804 1 0.16500 119244.000000
8484 13884 1 0.16500 119244.000000
8485 13804 1 0.16500 119244.000000
8485 14621 1 0.16500 119244.000000
8486 13805 1 0.16500 119244.000000
8486 15805 1 0.16500 119244.000000
8487 13805 1 0.16500 119244.000000
8487 14601 1 0.16500 119244.000000
8488 13805 1 0.16500 119244.000000
8488 16078 1 0.16500 119244.000000
8489 13806 1 0.16500 119244.000000
8489 14644 1 0.16500 119244.000000
8490 13806 1 0.16500 119244.000000
8490 15753 1 0.16500 119244.000000
8491 13806 1 0.16500 119244.000000
8491 14537 1 0.16500 119244.000000
8492 15631 1 0.16500 119244.000000
8492 23971 1 0.16500 119244.000000
8493 13807 1 0.16500 119244.000000
8493 21517 1 0.16500 119244.000000
8494 13807 1 0.16500 119244.000000
8494 14678 1 0.16500 119244.000000
8495 13808 1 0.16500 119244.000000
8495 15809 1 0.16500 119244.000000
8496 13808 1 0.16500 119244.000000
8496 14522 1 0.16500 119244.000000
8497 14956 1 0.16500 119244.000000
8497 24467 1 0.16500 119244.000000
8498 13809 1 0.16500 119244.000000
8498 24172 1 0.16500 119244.000000
8499 14141 1 0.16500 119244.000000
8499 14956 1 0.16500 119244.000000
8500 13809 1 0.16500 119244.000000
8500 14956 1 0.16500 119244.000000
8501 14162 1 0.16500 119244.000000
8501 24427 1 0.16500 119244.000000
8502 13810 1 0.16500 119244.000000
8502 14447 1 0.16500 119244.000000
8503 13810 1 0.16500 119244.000000
8503 14144 1 0.16500 119244.000000
8504 13810 1 0.16500 119244.000000
8504 13903 1 0.16500 119244.000000
8505 12015 1 0.16500 119244.000000
8505 15177 1 0.16500 119244.000000
8506 12015 1 0.16500 119244.000000
8506 13825 1 0.16500 119244.000000
8507 13812 1 0.16500 119244.000000
8507 14972 1 0.16500 119244.000000
8508 13813 1 0.16500 119244.000000
8508 15207 1 0.16500 119244.000000
8509 13813 1 0.16500 119244.000000
8509 15666 1 0.16500 119244.000000
8510 13813 1 0.16500 119244.000000
8510 15139 1 0.16500 119244.000000
8511 16815 1 0.16500 119244.000000
8511 22333 1 0.16500 119244.000000
8512 15335 1 0.16500 119244.000000
8512 22333 1 0.16500 119244.000000
8513 13814 1 0.16500 119244.000000
8513 14876 1 0.16500 119244.000000
8514 13815 1 0.16500 119244.000000
8514 15392 1 0.16500 119244.000000
8515 13815 1 0.16500 119244.000000
8515 14612 1 0.16500 119244.000000
8516 13815 1 0.16500 119244.000000
8516 16146 1 0.16500 119244.000000
8517 13816 1 0.16500 119244.000000
8517 16059 1 0.16500 119244.000000
8518 16264 1 0.16500 119244.000000
8518 23974 1 0.16500 119244.000000
8519 13817 1 0.16500 119244.000000
8519 14925 1 0.16500 119244.000000
8520 19573 1 0.16500 119244.000000
8520 24277 1 0.16500 119244.000000
8521 13818 1 0.16500 119244.000000
8521 14399 1 0.16500 119244.000000
8522 13818 1 0.16500 119244.000000
8522 15728 1 0.16500 119244.000000
8523 13819 1 0.16500 119244.000000
8523 14622 1 0.16500 119244.000000
8524 13819 1 0.16500 119244.000000
8524 16258 1 0.16500 119244.000000
8525 11305 1 0.16500 119244.000000
8525 14182 1 0.16500 119244.000000
8526 11305 1 0.16500 119244.000000
8526 14454 1 0.16500 119244.000000
8527 11305 1 0.16500 119244.000000
8527 14050 1 0.16500 119244.000000
8528 13821 1 0.16500 119244.000000
8528 13886 1 0.16500 119244.000000
8529 13821 1 0.16500 119244.000000
8529 14468 1 0.16500 119244.000000
8530 13822 1 0.16500 119244.000000
8530 14081 1 0.16500 119244.000000
8531 13822 1 0.16500 119244.000000
8531 15540 1 0.16500 119244.000000
8532 13823 1 0.16500 119244.000000
8532 15990 1 0.16500 119244.000000
8533 13823 1 0.16500 119244.000000
8533 15150 1 0.16500 119244.000000
8534 13823 1 0.16500 119244.000000
8534 16074 1 0.16500 119244.000000
8535 13824 1 0.16500 119244.000000
8535 15660 1 0.16500 119244.000000
8536 13824 1 0.16500 119244.000000
8536 15031 1 0.16500 119244.000000
8537 13824 1 0.16500 119244.000000
8537 15955 1 0.16500 119244.000000
8538 13825 1 0.16500 119244.000000
8538 15886 1 0.16500 119244.000000
8539 13825 1 0.16500 119244.000000
8539 14149 1 0.16500 119244.000000
8540 13826 1 0.16500 119244.000000
8540 15837 1 0.16500 119244.000000
8541 13826 1 0.16500 119244.000000
8541 15287 1 0.16500 119244.000000
8542 13826 1 0.16500 119244.000000
8542 16155 1 0.16500 119244.000000
8543 13827 1 0.16500 119244.000000
8543 14583 1 0.16500 119244.000000
8544 13827 1 0.16500 119244.000000
8544 15673 1 0.16500 119244.000000
8545 13827 1 0.16500 119244.000000
8545 13936 1 0.16500 119244.000000
8546 13828 1 0.16500 119244.000000
8546 15038 1 0.16500 119244.000000
8547 13829 1 0.16500 119244.000000
8547 14868 1 0.16500 119244.000000
8548 13829 1 0.16500 119244.000000
8548 15277 1 0.16500 119244.000000
8549 13829 1 0.16500 119244.000000
8549 14051 1 0.16500 119244.000000
8550 15612 1 0.16500 119244.000000
8550 19453 1 0.16500 119244.000000
8551 13830 1 0.16500 119244.000000
8551 14571 1 0.16500 119244.000000
8552 13830 1 0.16500 119244.000000
8552 14893 1 0.16500 119244.000000
8553 13830 1 0.16500 119244.000000
8553 14465 1 0.16500 119244.000000
8554 13832 1 0.16500 119244.000000
8554 16182 1 0.16500 119244.000000
8555 13832 1 0.16500 119244.000000
8555 13862 1 0.16500 119244.000000
8556 13833 1 0.16500 119244.000000
8556 16053 1 0.16500 119244.000000
8557 13833 1 0.16500 119244.000000
8557 16142 1 0.16500 119244.000000
8558 13834 1 0.16500 119244.000000
8558 14729 1 0.16500 119244.000000
8559 13834 1 0.16500 119244.000000
8559 16037 1 0.16500 119244.000000
8560 13835 1 0.16500 119244.000000
8560 15669 1 0.16500 119244.000000
8561 13835 1 0.16500 119244.000000
8561 15780 1 0.16500 119244.000000
8562 15255 1 0.16500 119244.000000
8562 24432 1 0.16500 119244.000000
8563 13836 1 0.16500 119244.000000
8563 16055 1 0.16500 119244.000000
8564 13837 1 0.16500 119244.000000
8564 16057 1 0.16500 119244.000000
8565 13837 1 0.16500 119244.000000
8565 15063 1 0.16500 119244.000000
8566 13838 1 0.16500 119244.000000
8566 15785 1 0.16500 119244.000000
8567 13839 1 0.16500 119244.000000
8567 14923 1 0.16500 119244.000000
8568 13840 1 0.16500 119244.000000
8568 14382 1 0.16500 119244.000000
8569 13840 1 0.16500 119244.000000
8569 24232 1 0.16500 119244.000000
8570 13841 1 0.16500 119244.000000
8570 14981 1 0.16500 119244.000000
8571 13841 1 0.16500 119244.000000
8571 16243 1 0.16500 119244.000000
8572 13841 1 0.16500 119244.000000
8572 15492 1 0.16500 119244.000000
8573 14214 1 0.16500 119244.000000
8573 20581 1 0.16500 119244.000000
8574 15735 1 0.16500 119244.000000
8574 20581 1 0.16500 119244.000000
8575 13843 1 0.16500 119244.000000
8575 15002 1 0.16500 119244.000000
8576 13844 1 0.16500 119244.000000
8576 16050 1 0.16500 119244.000000
8577 13844 1 0.16500 119244.000000
8577 15534 1 0.16500 119244.000000
8578 13844 1 0.16500 119244.000000
8578 16083 1 0.16500 119244.000000
8579 13844 1 0.16500 119244.000000
8579 13919 1 0.16500 119244.000000
8580 13845 1 0.16500 119244.000000
8580 15436 1 0.16500 119244.000000
8581 11663 1 0.16500 119244.000000
8581 13845 1 0.16500 119244.000000
8582 13846 1 0.16500 119244.000000
8582 15011 1 0.16500 119244.000000
8583 13847 1 0.16500 119244.000000
8583 15735 1 0.16500 119244.000000
8584 13847 1 0.16500 119244.000000
8584 15278 1 0.16500 119244.000000
8585 11498 1 0.16500 119244.000000
8585 13847 1 0.16500 119244.000000
8586 13848 1 0.16500 119244.000000
8586 14787 1 0.16500 119244.000000
8587 13848 1 0.16500 119244.000000
8587 14984 1 0.16500 119244.000000
8588 13849 1 0.16500 119244.000000
8588 24250 1 0.16500 119244.000000
8589 13849 1 0.16500 119244.000000
8589 15263 1 0.16500 119244.000000
8590 13850 1 0.16500 119244.000000
8590 15350 1 0.16500 119244.000000
8591 13850 1 0.16500 119244.000000
8591 14851 1 0.16500 119244.000000
8592 13850 1 0.16500 119244.000000
8592 15191 1 0.16500 119244.000000
8593 12668 1 0.16500 119244.000000
8593 14380 1 0.16500 119244.000000
8594 13851 1 0.16500 119244.000000
8594 13888 1 0.16500 119244.000000
8595 13851 1 0.16500 119244.000000
8595 16076 1 0.16500 119244.000000
8596 13852 1 0.16500 119244.000000
8596 15401 1 0.16500 119244.000000
8597 13852 1 0.16500 119244.000000
8597 15476 1 0.16500 119244.000000
8598 13852 1 0.16500 119244.000000
8598 15793 1 0.16500 119244.000000
8599 13853 1 0.16500 119244.000000
8599 14796 1 0.16500 119244.000000
8600 13853 1 0.16500 119244.000000
8600 15253 1 0.16500 119244.000000
8601 13853 1 0.16500 119244.000000
8601 21769 1 0.16500 119244.000000
8602 13854 1 0.16500 119244.000000
8602 14519 1 0.16500 119244.000000
8603 13854 1 0.16500 119244.000000
8603 16019 1 0.16500 119244.000000
8604 13856 1 0.16500 119244.000000
8604 14870 1 0.16500 119244.000000
8605 13857 1 0.16500 119244.000000
8605 16063 1 0.16500 119244.000000
8606 13857 1 0.16500 119244.000000
8606 15863 1 0.16500 119244.000000
8607 13857 1 0.16500 119244.000000
8607 16153 1 0.16500 119244.000000
8608 13857 1 0.16500 119244.000000
8608 15565 1 0.16500 119244.000000
8609 13700 1 0.16500 119244.000000
8609 13858 1 0.16500 119244.000000
8610 13859 1 0.16500 119244.000000
8610 15856 1 0.16500 119244.000000
8611 13859 1 0.16500 119244.000000
8611 15596 1 0.16500 119244.000000
8612 11702 1 0.16500 119244.000000
8612 15888 1 0.16500 119244.000000
8613 13860 1 0.16500 119244.000000
8613 15849 1 0.16500 119244.000000
8614 13860 1 0.16500 119244.000000
8614 15596 1 0.16500 119244.000000
8615 13861 1 0.16500 119244.000000
8615 14858 1 0.16500 119244.000000
8616 13861 1 0.16500 119244.000000
8616 14321 1 0.16500 119244.000000
8617 17291 1 0.16500 119244.000000
8617 24124 1 0.16500 119244.000000
8618 14481 1 0.16500 119244.000000
8618 17291 1 0.16500 119244.000000
8619 13862 1 0.16500 119244.000000
8619 24268 1 0.16500 119244.000000
8620 13862 1 0.16500 119244.000000
8620 14775 1 0.16500 119244.000000
8621 17865 1 0.16500 119244.000000
8621 24169 1 0.16500 119244.000000
8622 11404 1 0.16500 119244.000000
8622 14631 1 0.16500 119244.000000
8623 13863 1 0.16500 119244.000000
8623 14246 1 0.16500 119244.000000
8624 13863 1 0.16500 119244.000000
8624 15319 1 0.16500 119244.000000
8625 13864 1 0.16500 119244.000000
8625 15628 1 0.16500 119244.000000
8626 13865 1 0.16500 119244.000000
8626 14809 1 0.16500 119244.000000
8627 13865 1 0.16500 119244.000000
8627 16214 1 0.16500 119244.000000
8628 13865 1 0.16500 119244.000000
8628 13886 1 0.16500 119244.000000
8629 13865 1 0.16500 119244.000000
8629 14895 1 0.16500 119244.000000
8630 13866 1 0.16500 119244.000000
8630 15575 1 0.16500 119244.000000
8631 13867 1 0.16500 119244.000000
8631 14005 1 0.16500 119244.000000
8632 13867 1 0.16500 119244.000000
8632 14329 1 0.16500 119244.000000
8633 13867 1 0.16500 119244.000000
8633 15362 1 0.16500 119244.000000
8634 16829 1 0.16500 119244.000000
8634 18505 1 0.16500 119244.000000
8635 18505 1 0.16500 119244.000000
8635 24001 1 0.16500 119244.000000
8636 15282 1 0.16500 119244.000000
8636 18505 1 0.16500 119244.000000
8637 14642 1 0.16500 119244.000000
8637 14715 1 0.16500 119244.000000
8638 14461 1 0.16500 119244.000000
8638 14715 1 0.16500 119244.000000
8639 13868 1 0.16500 119244.000000
8639 14715 1 0.16500 119244.000000
8640 13869 1 0.16500 119244.000000
8640 15714 1 0.16500 119244.000000
8641 13870 1 0.16500 119244.000000
8641 15200 1 0.16500 119244.000000
8642 13870 1 0.16500 119244.000000
8642 13969 1 0.16500 119244.000000
8643 13871 1 0.16500 119244.000000
8643 15009 1 0.16500 119244.000000
8644 13871 1 0.16500 119244.000000
8644 15229 1 0.16500 119244.000000
8645 13872 1 0.16500 119244.000000
8645 14747 1 0.16500 119244.000000
8646 13872 1 0.16500 119244.000000
8646 14757 1 0.16500 119244.000000
8647 15820 1 0.16500 119244.000000
8647 22417 1 0.16500 119244.000000
8648 15847 1 0.16500 119244.000000
8648 22417 1 0.16500 119244.000000
8649 13873 1 0.16500 119244.000000
8649 14856 1 0.16500 119244.000000
8650 13873 1 0.16500 119244.000000
8650 15433 1 0.16500 119244.000000
8651 13874 1 0.16500 119244.000000
8651 15352 1 0.16500 119244.000000
8652 13875 1 0.16500 119244.000000
8652 14276 1 0.16500 119244.000000
8653 13876 1 0.16500 119244.000000
8653 15608 1 0.16500 119244.000000
8654 13876 1 0.16500 119244.000000
8654 14887 1 0.16500 119244.000000
8655 13877 1 0.16500 119244.000000
8655 14840 1 0.16500 119244.000000
8656 13877 1 0.16500 119244.000000
8656 15835 1 0.16500 119244.000000
8657 21685 1 0.16500 119244.000000
8657 23977 1 0.16500 119244.000000
8658 23977 1 0.16500 119244.000000
8658 24028 1 0.16500 119244.000000
8659 13878 1 0.16500 119244.000000
8659 14966 1 0.16500 119244.000000
8660 13879 1 0.16500 119244.000000
8660 14275 1 0.16500 119244.000000
8661 13879 1 0.16500 119244.000000
8661 15513 1 0.16500 119244.000000
8662 13880 1 0.16500 119244.000000
8662 14781 1 0.16500 119244.000000
8663 13880 1 0.16500 119244.000000
8663 16030 1 0.16500 119244.000000
8664 12801 1 0.16500 119244.000000
8664 13880 1 0.16500 119244.000000
8665 13880 1 0.16500 119244.000000
8665 14359 1 0.16500 119244.000000
8666 13968 1 0.16500 119244.000000
8666 16008 1 0.16500 119244.000000
8667 13968 1 0.16500 119244.000000
8667 14772 1 0.16500 119244.000000
8668 13881 1 0.16500 119244.000000
8668 15097 1 0.16500 119244.000000
8669 13882 1 0.16500 119244.000000
8669 15043 1 0.16500 119244.000000
8670 13883 1 0.16500 119244.000000
8670 16113 1 0.16500 119244.000000
8671 13883 1 0.16500 119244.000000
8671 16010 1 0.16500 119244.000000
8672 16213 1 0.16500 119244.000000
8672 19993 1 0.16500 119244.000000
8673 13885 1 0.16500 119244.000000
8673 14725 1 0.16500 119244.000000
8674 13885 1 0.16500 119244.000000
8674 13950 1 0.16500 119244.000000
8675 11298 1 0.16500 119244.000000
8675 13887 1 0.16500 119244.000000
8676 13887 1 0.16500 119244.000000
8676 15988 1 0.16500 119244.000000
8677 13887 1 0.16500 119244.000000
8677 15176 1 0.16500 119244.000000
8678 13888 1 0.16500 119244.000000
8678 14509 1 0.16500 119244.000000
8679 14917 1 0.16500 119244.000000
8679 15494 1 0.16500 119244.000000
8680 13889 1 0.16500 119244.000000
8680 15494 1 0.16500 119244.000000
8681 13890 1 0.16500 119244.000000
8681 14872 1 0.16500 119244.000000
8682 13890 1 0.16500 119244.000000
8682 14969 1 0.16500 119244.000000
8683 13890 1 0.16500 119244.000000
8683 15570 1 0.16500 119244.000000
8684 13890 1 0.16500 119244.000000
8684 14381 1 0.16500 119244.000000
8685 13891 1 0.16500 119244.000000
8685 14777 1 0.16500 119244.000000
8686 13892 1 0.16500 119244.000000
8686 14491 1 0.16500 119244.000000
8687 13892 1 0.16500 119244.000000
8687 16021 1 0.16500 119244.000000
8688 13893 1 0.16500 119244.000000
8688 16238 1 0.16500 119244.000000
8689 13893 1 0.16500 119244.000000
8689 15416 1 0.16500 119244.000000
8690 13894 1 0.16500 119244.000000
8690 15680 1 0.16500 119244.000000
8691 13895 1 0.16500 119244.000000
8691 15863 1 0.16500 119244.000000
8692 13895 1 0.16500 119244.000000
8692 14400 1 0.16500 119244.000000
8693 13895 1 0.16500 119244.000000
8693 16063 1 0.16500 119244.000000
8694 13895 1 0.16500 119244.000000
8694 15259 1 0.16500 119244.000000
8695 13896 1 0.16500 119244.000000
8695 14219 1 0.16500 119244.000000
8696 13897 1 0.16500 119244.000000
8696 14602 1 0.16500 119244.000000
8697 13898 1 0.16500 119244.000000
8697 16145 1 0.16500 119244.000000
8698 13899 1 0.16500 119244.000000
8698 15689 1 0.16500 119244.000000
8699 13899 1 0.16500 119244.000000
8699 14115 1 0.16500 119244.000000
8700 13900 1 0.16500 119244.000000
8700 15575 1 0.16500 119244.000000
8701 13900 1 0.16500 119244.000000
8701 14214 1 0.16500 119244.000000
8702 13901 1 0.16500 119244.000000
8702 14507 1 0.16500 119244.000000
8703 13901 1 0.16500 119244.000000
8703 14415 1 0.16500 119244.000000
8704 13902 1 0.16500 119244.000000
8704 15225 1 0.16500 119244.000000
8705 13902 1 0.16500 119244.000000
8705 15189 1 0.16500 119244.000000
8706 13903 1 0.16500 119244.000000
8706 15534 1 0.16500 119244.000000
8707 13905 1 0.16500 119244.000000
8707 15368 1 0.16500 119244.000000
8708 13905 1 0.16500 119244.000000
8708 15403 1 0.16500 119244.000000
8709 13905 1 0.16500 119244.000000
8709 19141 1 0.16500 119244.000000
8710 13906 1 0.16500 119244.000000
8710 15306 1 0.16500 119244.000000
8711 13906 1 0.16500 119244.000000
8711 13926 1 0.16500 119244.000000
8712 13907 1 0.16500 119244.000000
8712 15834 1 0.16500 119244.000000
8713 13908 1 0.16500 119244.000000
8713 15461 1 0.16500 119244.000000
8714 13908 1 0.16500 119244.000000
8714 14934 1 0.16500 119244.000000
8715 13909 1 0.16500 119244.000000
8715 16218 1 0.16500 119244.000000
8716 13910 1 0.16500 119244.000000
8716 15551 1 0.16500 119244.000000
8717 13910 1 0.16500 119244.000000
8717 14828 1 0.16500 119244.000000
8718 13910 1 0.16500 119244.000000
8718 15307 1 0.16500 119244.000000
8719 13911 1 0.16500 119244.000000
8719 14891 1 0.16500 119244.000000
8720 13911 1 0.16500 119244.000000
8720 15982 1 0.16500 119244.000000
8721 13912 1 0.16500 119244.000000
8721 14139 1 0.16500 119244.000000
8722 13912 1 0.16500 119244.000000
8722 14950 1 0.16500 119244.000000
8723 13913 1 0.16500 119244.000000
8723 15482 1 0.16500 119244.000000
8724 13913 1 0.16500 119244.000000
8724 14739 1 0.16500 119244.000000
8725 13913 1 0.16500 119244.000000
8725 24447 1 0.16500 119244.000000
8726 13914 1 0.16500 119244.000000
8726 14339 1 0.16500 119244.000000
8727 13914 1 0.16500 119244.000000
8727 14843 1 0.16500 119244.000000
8728 13915 1 0.16500 119244.000000
8728 15371 1 0.16500 119244.000000
8729 11342 1 0.16500 119244.000000
8729 13915 1 0.16500 119244.000000
8730 13915 1 0.16500 119244.000000
8730 15267 1 0.16500 119244.000000
8731 13916 1 0.16500 119244.000000
8731 15896 1 0.16500 119244.000000
8732 13916 1 0.16500 119244.000000
8732 15796 1 0.16500 119244.000000
8733 13917 1 0.16500 119244.000000
8733 14586 1 0.16500 119244.000000
8734 13918 1 0.16500 119244.000000
8734 15998 1 0.16500 119244.000000
8735 13135 1 0.16500 119244.000000
8735 16136 1 0.16500 119244.000000
8736 13919 1 0.16500 119244.000000
8736 15457 1 0.16500 119244.000000
8737 13920 1 0.16500 119244.000000
8737 14113 1 0.16500 119244.000000
8738 13921 1 0.16500 119244.000000
8738 16080 1 0.16500 119244.000000
8739 13921 1 0.16500 119244.000000
8739 16148 1 0.16500 119244.000000
8740 13921 1 0.16500 119244.000000
8740 15639 1 0.16500 119244.000000
8741 13922 1 0.16500 119244.000000
8741 14860 1 0.16500 119244.000000
8742 13923 1 0.16500 119244.000000
8742 15317 1 0.16500 119244.000000
8743 13923 1 0.16500 119244.000000
8743 15105 1 0.16500 119244.000000
8744 13924 1 0.16500 119244.000000
8744 14358 1 0.16500 119244.000000
8745 13924 1 0.16500 119244.000000
8745 15798 1 0.16500 119244.000000
8746 13925 1 0.16500 119244.000000
8746 15381 1 0.16500 119244.000000
8747 13927 1 0.16500 119244.000000
8747 13941 1 0.16500 119244.000000
8748 13927 1 0.16500 119244.000000
8748 14791 1 0.16500 119244.000000
8749 13927 1 0.16500 119244.000000
8749 15160 1 0.16500 119244.000000
8750 13928 1 0.16500 119244.000000
8750 15395 1 0.16500 119244.000000
8751 13929 1 0.16500 119244.000000
8751 14791 1 0.16500 119244.000000
8752 13930 1 0.16500 119244.000000
8752 13933 1 0.16500 119244.000000
8753 13930 1 0.16500 119244.000000
8753 14123 1 0.16500 119244.000000
8754 13931 1 0.16500 119244.000000
8754 14988 1 0.16500 119244.000000
8755 13931 1 0.16500 119244.000000
8755 14013 1 0.16500 119244.000000
8756 13931 1 0.16500 119244.000000
8756 15782 1 0.16500 119244.000000
8757 13933 1 0.16500 119244.000000
8757 15559 1 0.16500 119244.000000
8758 13934 1 0.16500 119244.000000
8758 15043 1 0.16500 119244.000000
8759 13934 1 0.16500 119244.000000
8759 14742 1 0.16500 119244.000000
8760 23980 1 0.16500 119244.000000
8760 24265 1 0.16500 119244.000000
8761 15486 1 0.16500 119244.000000
8761 23980 1 0.16500 119244.000000
8762 13935 1 0.16500 119244.000000
8762 15301 1 0.16500 119244.000000
8763 13936 1 0.16500 119244.000000
8763 14849 1 0.16500 119244.000000
8764 13937 1 0.16500 119244.000000
8764 13942 1 0.16500 119244.000000
8765 13937 1 0.16500 119244.000000
8765 14148 1 0.16500 119244.000000
8766 13938 1 0.16500 119244.000000
8766 14350 1 0.16500 119244.000000
8767 13938 1 0.16500 119244.000000
8767 15594 1 0.16500 119244.000000
8768 13939 1 0.16500 119244.000000
8768 14422 1 0.16500 119244.000000
8769 13939 1 0.16500 119244.000000
8769 15517 1 0.16500 119244.000000
8770 13940 1 0.16500 119244.000000
8770 15018 1 0.16500 119244.000000
8771 13940 1 0.16500 119244.000000
8771 15215 1 0.16500 119244.000000
8772 13942 1 0.16500 119244.000000
8772 15997 1 0.16500 119244.000000
8773 13943 1 0.16500 119244.000000
8773 15810 1 0.16500 119244.000000
8774 13943 1 0.16500 119244.000000
8774 14325 1 0.16500 119244.000000
8775 13944 1 0.16500 119244.000000
8775 15124 1 0.16500 119244.000000
8776 13944 1 0.16500 119244.000000
8776 14855 1 0.16500 119244.000000
8777 14162 1 0.16500 119244.000000
8777 23161 1 0.16500 119244.000000
8778 13945 1 0.16500 119244.000000
8778 14983 1 0.16500 119244.000000
8779 13945 1 0.16500 119244.000000
8779 14215 1 0.16500 119244.000000
8780 13946 1 0.16500 119244.000000
8780 15523 1 0.16500 119244.000000
8781 13946 1 0.16500 119244.000000
8781 15267 1 0.16500 119244.000000
8782 13946 1 0.16500 119244.000000
8782 14684 1 0.16500 119244.000000
8783 13947 1 0.16500 119244.000000
8783 16190 1 0.16500 119244.000000
8784 13947 1 0.16500 119244.000000
8784 14352 1 0.16500 119244.000000
8785 13948 1 0.16500 119244.000000
8785 24462 1 0.16500 119244.000000
8786 13949 1 0.16500 119244.000000
8786 14874 1 0.16500 119244.000000
8787 13949 1 0.16500 119244.000000
8787 15377 1 0.16500 119244.000000
8788 13950 1 0.16500 119244.000000
8788 14657 1 0.16500 119244.000000
8789 13950 1 0.16500 119244.000000
8789 15275 1 0.16500 119244.000000
8790 13951 1 0.16500 119244.000000
8790 14551 1 0.16500 119244.000000
8791 13951 1 0.16500 119244.000000
8791 15005 1 0.16500 119244.000000
8792 13951 1 0.16500 119244.000000
8792 14396 1 0.16500 119244.000000
8793 14584 1 0.16500 119244.000000
8793 23461 1 0.16500 119244.000000
8794 23461 1 0.16500 119244.000000
8794 24178 1 0.16500 119244.000000
8795 13952 1 0.16500 119244.000000
8795 14543 1 0.16500 119244.000000
8796 13953 1 0.16500 119244.000000
8796 14198 1 0.16500 119244.000000
8797 13953 1 0.16500 119244.000000
8797 14268 1 0.16500 119244.000000
8798 13954 1 0.16500 119244.000000
8798 14616 1 0.16500 119244.000000
8799 13954 1 0.16500 119244.000000
8799 21037 1 0.16500 119244.000000
8800 13955 1 0.16500 119244.000000
8800 15339 1 0.16500 119244.000000
8801 13464 1 0.16500 119244.000000
8801 13955 1 0.16500 119244.000000
8802 13955 1 0.16500 119244.000000
8802 14680 1 0.16500 119244.000000
8803 13956 1 0.16500 119244.000000
8803 15762 1 0.16500 119244.000000
8804 13956 1 0.16500 119244.000000
8804 13959 1 0.16500 119244.000000
8805 13957 1 0.16500 119244.000000
8805 14514 1 0.16500 119244.000000
8806 13957 1 0.16500 119244.000000
8806 14075 1 0.16500 119244.000000
8807 13957 1 0.16500 119244.000000
8807 15661 1 0.16500 119244.000000
8808 13958 1 0.16500 119244.000000
8808 14960 1 0.16500 119244.000000
8809 13959 1 0.16500 119244.000000
8809 15899 1 0.16500 119244.000000
8810 13959 1 0.16500 119244.000000
8810 14312 1 0.16500 119244.000000
8811 13959 1 0.16500 119244.000000
8811 15330 1 0.16500 119244.000000
8812 13960 1 0.16500 119244.000000
8812 15891 1 0.16500 119244.000000
8813 14691 1 0.16500 119244.000000
8813 22777 1 0.16500 119244.000000
8814 13961 1 0.16500 119244.000000
8814 14699 1 0.16500 119244.000000
8815 19129 1 0.16500 119244.000000
8815 23800 1 0.16500 119244.000000
8816 13962 1 0.16500 119244.000000
8816 14559 1 0.16500 119244.000000
8817 13963 1 0.16500 119244.000000
8817 15903 1 0.16500 119244.000000
8818 13964 1 0.16500 119244.000000
8818 15651 1 0.16500 119244.000000
8819 13964 1 0.16500 119244.000000
8819 16058 1 0.16500 119244.000000
8820 13965 1 0.16500 119244.000000
8820 15933 1 0.16500 119244.000000
8821 15636 1 0.16500 119244.000000
8821 23983 1 0.16500 119244.000000
8822 17949 1 0.16500 119244.000000
8822 23281 1 0.16500 119244.000000
8823 13966 1 0.16500 119244.000000
8823 14366 1 0.16500 119244.000000
8824 13966 1 0.16500 119244.000000
8824 15721 1 0.16500 119244.000000
8825 13967 1 0.16500 119244.000000
8825 14961 1 0.16500 119244.000000
8826 15466 1 0.16500 119244.000000
8826 16008 1 0.16500 119244.000000
8827 13971 1 0.16500 119244.000000
8827 14058 1 0.16500 119244.000000
8828 13971 1 0.16500 119244.000000
8828 21877 1 0.16500 119244.000000
8829 13971 1 0.16500 119244.000000
8829 23425 1 0.16500 119244.000000
8830 13972 1 0.16500 119244.000000
8830 15491 1 0.16500 119244.000000
8831 13973 1 0.16500 119244.000000
8831 15625 1 0.16500 119244.000000
8832 13973 1 0.16500 119244.000000
8832 15352 1 0.16500 119244.000000
8833 13973 1 0.16500 119244.000000
8833 14736 1 0.16500 119244.000000
8834 13973 1 0.16500 119244.000000
8834 14449 1 0.16500 119244.000000
8835 13974 1 0.16500 119244.000000
8835 14205 1 0.16500 119244.000000
8836 13975 1 0.16500 119244.000000
8836 15209 1 0.16500 119244.000000
8837 13976 1 0.16500 119244.000000
8837 14640 1 0.16500 119244.000000
8838 13977 1 0.16500 119244.000000
8838 14752 1 0.16500 119244.000000
8839 13977 1 0.16500 119244.000000
8839 15070 1 0.16500 119244.000000
8840 13977 1 0.16500 119244.000000
8840 15596 1 0.16500 119244.000000
8841 13978 1 0.16500 119244.000000
8841 17599 1 0.16500 119244.000000
8842 13978 1 0.16500 119244.000000
8842 14325 1 0.16500 119244.000000
8843 13979 1 0.16500 119244.000000
8843 15786 1 0.16500 119244.000000
8844 13979 1 0.16500 119244.000000
8844 14958 1 0.16500 119244.000000
8845 13980 1 0.16500 119244.000000
8845 15967 1 0.16500 119244.000000
8846 13980 1 0.16500 119244.000000
8846 15949 1 0.16500 119244.000000
8847 13981 1 0.16500 119244.000000
8847 15075 1 0.16500 119244.000000
8848 12895 1 0.16500 119244.000000
8848 14553 1 0.16500 119244.000000
8849 13982 1 0.16500 119244.000000
8849 15041 1 0.16500 119244.000000
8850 13983 1 0.16500 119244.000000
8850 16198 1 0.16500 119244.000000
8851 17851 1 0.16500 119244.000000
8851 24196 1 0.16500 119244.000000
8852 13984 1 0.16500 119244.000000
8852 14649 1 0.16500 119244.000000
8853 13984 1 0.16500 119244.000000
8853 14874 1 0.16500 119244.000000
8854 13984 1 0.16500 119244.000000
8854 15955 1 0.16500 119244.000000
8855 12726 1 0.16500 119244.000000
8855 16163 1 0.16500 119244.000000
8856 13985 1 0.16500 119244.000000
8856 14407 1 0.16500 119244.000000
8857 13985 1 0.16500 119244.000000
8857 14222 1 0.16500 119244.000000
8858 13986 1 0.16500 119244.000000
8858 15528 1 0.16500 119244.000000
8859 13986 1 0.16500 119244.000000
8859 15146 1 0.16500 119244.000000
8860 13986 1 0.16500 119244.000000
8860 15960 1 0.16500 119244.000000
8861 13987 1 0.16500 119244.000000
8861 15857 1 0.16500 119244.000000
8862 13987 1 0.16500 119244.000000
8862 14391 1 0.16500 119244.000000
8863 13987 1 0.16500 119244.000000
8863 14860 1 0.16500 119244.000000
8864 13988 1 0.16500 119244.000000
8864 15923 1 0.16500 119244.000000
8865 13988 1 0.16500 119244.000000
8865 21697 1 0.16500 119244.000000
8866 14622 1 0.16500 119244.000000
8866 17823 1 0.16500 119244.000000
8867 16017 1 0.16500 119244.000000
8867 17823 1 0.16500 119244.000000
8868 13989 1 0.16500 119244.000000
8868 14221 1 0.16500 119244.000000
8869 15530 1 0.16500 119244.000000
8869 17529 1 0.16500 119244.000000
8870 13990 1 0.16500 119244.000000
8870 15913 1 0.16500 119244.000000
8871 13990 1 0.16500 119244.000000
8871 14131 1 0.16500 119244.000000
8872 13992 1 0.16500 119244.000000
8872 14855 1 0.16500 119244.000000
8873 13993 1 0.16500 119244.000000
8873 14661 1 0.16500 119244.000000
8874 13993 1 0.16500 119244.000000
8874 24166 1 0.16500 119244.000000
8875 13993 1 0.16500 119244.000000
8875 21229 1 0.16500 119244.000000
8876 14623 1 0.16500 119244.000000
8876 20221 1 0.16500 119244.000000
8877 14835 1 0.16500 119244.000000
8877 23017 1 0.16500 119244.000000
8878 14373 1 0.16500 119244.000000
8878 22213 1 0.16500 119244.000000
8879 22213 1 0.16500 119244.000000
8879 22225 1 0.16500 119244.000000
8880 13994 1 0.16500 119244.000000
8880 14895 1 0.16500 119244.000000
8881 13995 1 0.16500 119244.000000
8881 14826 1 0.16500 119244.000000
8882 13995 1 0.16500 119244.000000
8882 15864 1 0.16500 119244.000000
8883 13996 1 0.16500 119244.000000
8883 15081 1 0.16500 119244.000000
8884 13997 1 0.16500 119244.000000
8884 15446 1 0.16500 119244.000000
8885 13997 1 0.16500 119244.000000
8885 15314 1 0.16500 119244.000000
8886 13998 1 0.16500 119244.000000
8886 14299 1 0.16500 119244.000000
8887 13998 1 0.16500 119244.000000
8887 15504 1 0.16500 119244.000000
8888 14000 1 0.16500 119244.000000
8888 15732 1 0.16500 119244.000000
8889 14000 1 0.16500 119244.000000
8889 15715 1 0.16500 119244.000000
8890 14000 1 0.16500 119244.000000
8890 14213 1 0.16500 119244.000000
8891 14001 1 0.16500 119244.000000
8891 14226 1 0.16500 119244.000000
8892 14001 1 0.16500 119244.000000
8892 15209 1 0.16500 119244.000000
8893 13172 1 0.16500 119244.000000
8893 14002 1 0.16500 119244.000000
8894 11979 1 0.16500 119244.000000
8894 15695 1 0.16500 119244.000000
8895 14003 1 0.16500 119244.000000
8895 16015 1 0.16500 119244.000000
8896 14004 1 0.16500 119244.000000
8896 14591 1 0.16500 119244.000000
8897 14004 1 0.16500 119244.000000
8897 14602 1 0.16500 119244.000000
8898 14004 1 0.16500 119244.000000
8898 14822 1 0.16500 119244.000000
8899 14005 1 0.16500 119244.000000
8899 14369 1 0.16500 119244.000000
8900 14006 1 0.16500 119244.000000
8900 16014 1 0.16500 119244.000000
8901 14006 1 0.16500 119244.000000
8901 15485 1 0.16500 119244.000000
8902 14007 1 0.16500 119244.000000
8902 15728 1 0.16500 119244.000000
8903 14007 1 0.16500 119244.000000
8903 15830 1 0.16500 119244.000000
8904 14008 1 0.16500 119244.000000
8904 16079 1 0.16500 119244.000000
8905 14008 1 0.16500 119244.000000
8905 16222 1 0.16500 119244.000000
8906 14008 1 0.16500 119244.000000
8906 14830 1 0.16500 119244.000000
8907 14009 1 0.16500 119244.000000
8907 15693 1 0.16500 119244.000000
8908 14755 1 0.16500 119244.000000
8908 18997 1 0.16500 119244.000000
8909 14011 1 0.16500 119244.000000
8909 14667 1 0.16500 119244.000000
8910 14011 1 0.16500 119244.000000
8910 14407 1 0.16500 119244.000000
8911 14012 1 0.16500 119244.000000
8911 15536 1 0.16500 119244.000000
8912 14012 1 0.16500 119244.000000
8912 14503 1 0.16500 119244.000000
8913 14083 1 0.16500 119244.000000
8913 23986 1 0.16500 119244.000000
8914 14013 1 0.16500 119244.000000
8914 14402 1 0.16500 119244.000000
8915 14013 1 0.16500 119244.000000
8915 14444 1 0.16500 119244.000000
8916 13012 1 0.16500 119244.000000
8916 17067 1 0.16500 119244.000000
8917 14014 1 0.16500 119244.000000
8917 15219 1 0.16500 119244.000000
8918 14015 1 0.16500 119244.000000
8918 14650 1 0.16500 119244.000000
8919 14015 1 0.16500 119244.000000
8919 14502 1 0.16500 119244.000000
8920 14015 1 0.16500 119244.000000
8920 14995 1 0.16500 119244.000000
8921 14016 1 0.16500 119244.000000
8921 15794 1 0.16500 119244.000000
8922 14016 1 0.16500 119244.000000
8922 15831 1 0.16500 119244.000000
8923 16263 1 0.16500 119244.000000
8923 22345 1 0.16500 119244.000000
8924 14018 1 0.16500 119244.000000
8924 14906 1 0.16500 119244.000000
8925 14018 1 0.16500 119244.000000
8925 16185 1 0.16500 119244.000000
8926 14018 1 0.16500 119244.000000
8926 14816 1 0.16500 119244.000000
8927 16072 1 0.16500 119244.000000
8927 23989 1 0.16500 119244.000000
8928 18103 1 0.16500 119244.000000
8928 20497 1 0.16500 119244.000000
8929 14019 1 0.16500 119244.000000
8929 16006 1 0.16500 119244.000000
8930 14020 1 0.16500 119244.000000
8930 16204 1 0.16500 119244.000000
8931 14020 1 0.16500 119244.000000
8931 16048 1 0.16500 119244.000000
8932 14020 1 0.16500 119244.000000
8932 15476 1 0.16500 119244.000000
8933 14020 1 0.16500 119244.000000
8933 15724 1 0.16500 119244.000000
8934 14021 1 0.16500 119244.000000
8934 15882 1 0.16500 119244.000000
8935 14021 1 0.16500 119244.000000
8935 15177 1 0.16500 119244.000000
8936 14022 1 0.16500 119244.000000
8936 14717 1 0.16500 119244.000000
8937 14023 1 0.16500 119244.000000
8937 14713 1 0.16500 119244.000000
8938 14023 1 0.16500 119244.000000
8938 23377 1 0.16500 119244.000000
8939 13609 1 0.16500 119244.000000
8939 14024 1 0.16500 119244.000000
8940 14025 1 0.16500 119244.000000
8940 15997 1 0.16500 119244.000000
8941 14026 1 0.16500 119244.000000
8941 14067 1 0.16500 119244.000000
8942 22465 1 0.16500 119244.000000
8942 23233 1 0.16500 119244.000000
8943 14027 1 0.16500 119244.000000
8943 15752 1 0.16500 119244.000000
8944 14027 1 0.16500 119244.000000
8944 14571 1 0.16500 119244.000000
8945 14027 1 0.16500 119244.000000
8945 15952 1 0.16500 119244.000000
8946 14027 1 0.16500 119244.000000
8946 16180 1 0.16500 119244.000000
8947 14028 1 0.16500 119244.000000
8947 15843 1 0.16500 119244.000000
8948 14028 1 0.16500 119244.000000
8948 14250 1 0.16500 119244.000000
8949 14029 1 0.16500 119244.000000
8949 16168 1 0.16500 119244.000000
8950 14029 1 0.16500 119244.000000
8950 14977 1 0.16500 119244.000000
8951 14029 1 0.16500 119244.000000
8951 15150 1 0.16500 119244.000000
8952 14029 1 0.16500 119244.000000
8952 16224 1 0.16500 119244.000000
8953 14030 1 0.16500 119244.000000
8953 15155 1 0.16500 119244.000000
8954 14031 1 0.16500 119244.000000
8954 24268 1 0.16500 119244.000000
8955 14031 1 0.16500 119244.000000
8955 14768 1 0.16500 119244.000000
8956 14031 1 0.16500 119244.000000
8956 14511 1 0.16500 119244.000000
8957 14032 1 0.16500 119244.000000
8957 14323 1 0.16500 119244.000000
8958 14032 1 0.16500 119244.000000
8958 16270 1 0.16500 119244.000000
8959 14032 1 0.16500 119244.000000
8959 15139 1 0.16500 119244.000000
8960 14034 1 0.16500 119244.000000
8960 14037 1 0.16500 119244.000000
8961 19201 1 0.16500 119244.000000
8961 21385 1 0.16500 119244.000000
8962 18349 1 0.16500 119244.000000
8962 21289 1 0.16500 119244.000000
8963 14035 1 0.16500 119244.000000
8963 16260 1 0.16500 119244.000000
8964 14036 1 0.16500 119244.000000
8964 15144 1 0.16500 119244.000000
8965 14036 1 0.16500 119244.000000
8965 16190 1 0.16500 119244.000000
8966 14036 1 0.16500 119244.000000
8966 15981 1 0.16500 119244.000000
8967 14037 1 0.16500 119244.000000
8967 15533 1 0.16500 119244.000000
8968 14038 1 0.16500 119244.000000
8968 15358 1 0.16500 119244.000000
8969 14038 1 0.16500 119244.000000
8969 15321 1 0.16500 119244.000000
8970 11993 1 0.16500 119244.000000
8970 15857 1 0.16500 119244.000000
8971 14040 1 0.16500 119244.000000
8971 16255 1 0.16500 119244.000000
8972 14040 1 0.16500 119244.000000
8972 15087 1 0.16500 119244.000000
8973 14040 1 0.16500 119244.000000
8973 14388 1 0.16500 119244.000000
8974 14472 1 0.16500 119244.000000
8974 24437 1 0.16500 119244.000000
8975 15900 1 0.16500 119244.000000
8975 22393 1 0.16500 119244.000000
8976 11923 1 0.16500 119244.000000
8976 14242 1 0.16500 119244.000000
8977 14041 1 0.16500 119244.000000
8977 15632 1 0.16500 119244.000000
8978 14041 1 0.16500 119244.000000
8978 14700 1 0.16500 119244.000000
8979 14042 1 0.16500 119244.000000
8979 16049 1 0.16500 119244.000000
8980 14042 1 0.16500 119244.000000
8980 14628 1 0.16500 119244.000000
8981 14042 1 0.16500 119244.000000
8981 15023 1 0.16500 119244.000000
8982 14043 1 0.16500 119244.000000
8982 15376 1 0.16500 119244.000000
8983 14043 1 0.16500 119244.000000
8983 14749 1 0.16500 119244.000000
8984 14044 1 0.16500 119244.000000
8984 16010 1 0.16500 119244.000000
8985 14044 1 0.16500 119244.000000
8985 14810 1 0.16500 119244.000000
8986 11560 1 0.16500 119244.000000
8986 14933 1 0.16500 119244.000000
8987 14046 1 0.16500 119244.000000
8987 16258 1 0.16500 119244.000000
8988 14046 1 0.16500 119244.000000
8988 15765 1 0.16500 119244.000000
8989 14046 1 0.16500 119244.000000
8989 14234 1 0.16500 119244.000000
8990 14047 1 0.16500 119244.000000
8990 15802 1 0.16500 119244.000000
8991 14049 1 0.16500 119244.000000
8991 15281 1 0.16500 119244.000000
8992 14049 1 0.16500 119244.000000
8992 15807 1 0.16500 119244.000000
8993 14050 1 0.16500 119244.000000
8993 15644 1 0.16500 119244.000000
8994 14050 1 0.16500 119244.000000
8994 16105 1 0.16500 119244.000000
8995 14051 1 0.16500 119244.000000
8995 14922 1 0.16500 119244.000000
8996 14053 1 0.16500 119244.000000
8996 16143 1 0.16500 119244.000000
8997 14053 1 0.16500 119244.000000
8997 14413 1 0.16500 119244.000000
8998 13717 1 0.16500 119244.000000
8998 15440 1 0.16500 119244.000000
8999 14055 1 0.16500 119244.000000
8999 14797 1 0.16500 119244.000000
9000 14055 1 0.16500 119244.000000
9000 14385 1 0.16500 119244.000000
9001 20809 1 0.16500 119244.000000
9001 23683 1 0.16500 119244.000000
9002 14056 1 0.16500 119244.000000
9002 15964 1 0.16500 119244.000000
9003 14056 1 0.16500 119244.000000
9003 15326 1 0.16500 119244.000000
9004 14056 1 0.16500 119244.000000
9004 23353 1 0.16500 119244.000000
9005 15254 1 0.16500 119244.000000
9005 21661 1 0.16500 119244.000000
9006 14057 1 0.16500 119244.000000
9006 14386 1 0.16500 119244.000000
9007 14057 1 0.16500 119244.000000
9007 16223 1 0.16500 119244.000000
9008 14057 1 0.16500 119244.000000
9008 16047 1 0.16500 119244.000000
9009 14058 1 0.16500 119244.000000
9009 15937 1 0.16500 119244.000000
9010 11706 1 0.16500 119244.000000
9010 20377 1 0.16500 119244.000000
9011 19537 1 0.16500 119244.000000
9011 23992 1 0.16500 119244.000000
9012 14192 1 0.16500 119244.000000
9012 23992 1 0.16500 119244.000000
9013 14059 1 0.16500 119244.000000
9013 15602 1 0.16500 119244.000000
9014 14059 1 0.16500 119244.000000
9014 15129 1 0.16500 119244.000000
9015 14060 1 0.16500 119244.000000
9015 14362 1 0.16500 119244.000000
9016 14362 1 0.16500 119244.000000
9016 14931 1 0.16500 119244.000000
9017 14060 1 0.16500 119244.000000
9017 16068 1 0.16500 119244.000000
9018 14061 1 0.16500 119244.000000
9018 15430 1 0.16500 119244.000000
9019 14062 1 0.16500 119244.000000
9019 14120 1 0.16500 119244.000000
9020 11872 1 0.16500 119244.000000
9020 14063 1 0.16500 119244.000000
9021 14063 1 0.16500 119244.000000
9021 22129 1 0.16500 119244.000000
9022 14064 1 0.16500 119244.000000
9022 14979 1 0.16500 119244.000000
9023 14064 1 0.16500 119244.000000
9023 15654 1 0.16500 119244.000000
9024 14065 1 0.16500 119244.000000
9024 14827 1 0.16500 119244.000000
9025 14065 1 0.16500 119244.000000
9025 20929 1 0.16500 119244.000000
9026 14066 1 0.16500 119244.000000
9026 15650 1 0.16500 119244.000000
9027 14066 1 0.16500 119244.000000
9027 15361 1 0.16500 119244.000000
9028 14066 1 0.16500 119244.000000
9028 15194 1 0.16500 119244.000000
9029 14067 1 0.16500 119244.000000
9029 19093 1 0.16500 119244.000000
9030 14067 1 0.16500 119244.000000
9030 14444 1 0.16500 119244.000000
9031 14068 1 0.16500 119244.000000
9031 15108 1 0.16500 119244.000000
9032 14068 1 0.16500 119244.000000
9032 18005 1 0.16500 119244.000000
9033 13290 1 0.16500 119244.000000
9033 14068 1 0.16500 119244.000000
9034 14069 1 0.16500 119244.000000
9034 14392 1 0.16500 119244.000000
9035 14853 1 0.16500 119244.000000
9035 20185 1 0.16500 119244.000000
9036 14071 1 0.16500 119244.000000
9036 15784 1 0.16500 119244.000000
9037 14071 1 0.16500 119244.000000
9037 14460 1 0.16500 119244.000000
9038 14072 1 0.16500 119244.000000
9038 15303 1 0.16500 119244.000000
9039 14072 1 0.16500 119244.000000
9039 14760 1 0.16500 119244.000000
9040 14073 1 0.16500 119244.000000
9040 15072 1 0.16500 119244.000000
9041 14910 1 0.16500 119244.000000
9041 15547 1 0.16500 119244.000000
9042 14073 1 0.16500 119244.000000
9042 15547 1 0.16500 119244.000000
9043 14073 1 0.16500 119244.000000
9043 15209 1 0.16500 119244.000000
9044 14074 1 0.16500 119244.000000
9044 14498 1 0.16500 119244.000000
9045 14075 1 0.16500 119244.000000
9045 15414 1 0.16500 119244.000000
9046 14076 1 0.16500 119244.000000
9046 14785 1 0.16500 119244.000000
9047 14076 1 0.16500 119244.000000
9047 15542 1 0.16500 119244.000000
9048 23293 1 0.16500 119244.000000
9048 24199 1 0.16500 119244.000000
9049 14077 1 0.16500 119244.000000
9049 14954 1 0.16500 119244.000000
9050 14077 1 0.16500 119244.000000
9050 15858 1 0.16500 119244.000000
9051 14078 1 0.16500 119244.000000
9051 14610 1 0.16500 119244.000000
9052 14078 1 0.16500 119244.000000
9052 16193 1 0.16500 119244.000000
9053 14079 1 0.16500 119244.000000
9053 14975 1 0.16500 119244.000000
9054 18769 1 0.16500 119244.000000
9054 24007 1 0.16500 119244.000000
9055 15791 1 0.16500 119244.000000
9055 18769 1 0.16500 119244.000000
9056 12409 1 0.16500 119244.000000
9056 14081 1 0.16500 119244.000000
9057 14082 1 0.16500 119244.000000
9057 14326 1 0.16500 119244.000000
9058 14082 1 0.16500 119244.000000
9058 15969 1 0.16500 119244.000000
9059 14082 1 0.16500 119244.000000
9059 14462 1 0.16500 119244.000000
9060 14083 1 0.16500 119244.000000
9060 14104 1 0.16500 119244.000000
9061 13209 1 0.16500 119244.000000
9061 14758 1 0.16500 119244.000000
9062 12262 1 0.16500 119244.000000
9062 14084 1 0.16500 119244.000000
9063 14084 1 0.16500 119244.000000
9063 14189 1 0.16500 119244.000000
9064 14084 1 0.16500 119244.000000
9064 15887 1 0.16500 119244.000000
9065 14085 1 0.16500 119244.000000
9065 14522 1 0.16500 119244.000000
9066 14086 1 0.16500 119244.000000
9066 15614 1 0.16500 119244.000000
9067 14726 1 0.16500 119244.000000
9067 16913 1 0.16500 119244.000000
9068 14087 1 0.16500 119244.000000
9068 15004 1 0.16500 119244.000000
9069 14568 1 0.16500 119244.000000
9069 15004 1 0.16500 119244.000000
9070 14088 1 0.16500 119244.000000
9070 16179 1 0.16500 119244.000000
9071 14088 1 0.16500 119244.000000
9071 14722 1 0.16500 119244.000000
9072 14089 1 0.16500 119244.000000
9072 15120 1 0.16500 119244.000000
9073 12470 1 0.16500 119244.000000
9073 14940 1 0.16500 119244.000000
9074 14090 1 0.16500 119244.000000
9074 15566 1 0.16500 119244.000000
9075 14090 1 0.16500 119244.000000
9075 14629 1 0.16500 119244.000000
9076 14091 1 0.16500 119244.000000
9076 15074 1 0.16500 119244.000000
9077 14091 1 0.16500 119244.000000
9077 15181 1 0.16500 119244.000000
9078 14091 1 0.16500 119244.000000
9078 16232 1 0.16500 119244.000000
9079 14091 1 0.16500 119244.000000
9079 15845 1 0.16500 119244.000000
9080 14092 1 0.16500 119244.000000
9080 16277 1 0.16500 119244.000000
9081 14092 1 0.16500 119244.000000
9081 14099 1 0.16500 119244.000000
9082 14599 1 0.16500 119244.000000
9082 15509 1 0.16500 119244.000000
9083 14092 1 0.16500 119244.000000
9083 15509 1 0.16500 119244.000000
9084 14093 1 0.16500 119244.000000
9084 14135 1 0.16500 119244.000000
9085 12950 1 0.16500 119244.000000
9085 14221 1 0.16500 119244.000000
9086 14095 1 0.16500 119244.000000
9086 14871 1 0.16500 119244.000000
9087 14096 1 0.16500 119244.000000
9087 15338 1 0.16500 119244.000000
9088 16131 1 0.16500 119244.000000
9088 19309 1 0.16500 119244.000000
9089 15019 1 0.16500 119244.000000
9089 19309 1 0.16500 119244.000000
9090 17613 1 0.16500 119244.000000
9090 19309 1 0.16500 119244.000000
9091 14097 1 0.16500 119244.000000
9091 21229 1 0.16500 119244.000000
9092 14097 1 0.16500 119244.000000
9092 22717 1 0.16500 119244.000000
9093 14097 1 0.16500 119244.000000
9093 14098 1 0.16500 119244.000000
9094 14098 1 0.16500 119244.000000
9094 14298 1 0.16500 119244.000000
9095 14098 1 0.16500 119244.000000
9095 16278 1 0.16500 119244.000000
9096 14099 1 0.16500 119244.000000
9096 15955 1 0.16500 119244.000000
9097 14099 1 0.16500 119244.000000
9097 14724 1 0.16500 119244.000000
9098 11813 1 0.16500 119244.000000
9098 18493 1 0.16500 119244.000000
9099 14100 1 0.16500 119244.000000
9099 15859 1 0.16500 119244.000000
9100 14100 1 0.16500 119244.000000
9100 16027 1 0.16500 119244.000000
9101 14101 1 0.16500 119244.000000
9101 15779 1 0.16500 119244.000000
9102 14101 1 0.16500 119244.000000
9102 14306 1 0.16500 119244.000000
9103 15550 1 0.16500 119244.000000
9103 23041 1 0.16500 119244.000000
9104 23041 1 0.16500 119244.000000
9104 24223 1 0.16500 119244.000000
9105 14102 1 0.16500 119244.000000
9105 14892 1 0.16500 119244.000000
9106 14102 1 0.16500 119244.000000
9106 15893 1 0.16500 119244.000000
9107 14102 1 0.16500 119244.000000
9107 14111 1 0.16500 119244.000000
9108 14103 1 0.16500 119244.000000
9108 15769 1 0.16500 119244.000000
9109 14104 1 0.16500 119244.000000
9109 15637 1 0.16500 119244.000000
9110 14105 1 0.16500 119244.000000
9110 14133 1 0.16500 119244.000000
9111 15764 1 0.16500 119244.000000
9111 22849 1 0.16500 119244.000000
9112 14105 1 0.16500 119244.000000
9112 15343 1 0.16500 119244.000000
9113 14106 1 0.16500 119244.000000
9113 15608 1 0.16500 119244.000000
9114 14107 1 0.16500 119244.000000
9114 14797 1 0.16500 119244.000000
9115 14107 1 0.16500 119244.000000
9115 14671 1 0.16500 119244.000000
9116 14107 1 0.16500 119244.000000
9116 15100 1 0.16500 119244.000000
9117 14108 1 0.16500 119244.000000
9117 15892 1 0.16500 119244.000000
9118 14108 1 0.16500 119244.000000
9118 15040 1 0.16500 119244.000000
9119 14582 1 0.16500 119244.000000
9119 15040 1 0.16500 119244.000000
9120 14108 1 0.16500 119244.000000
9120 15740 1 0.16500 119244.000000
9121 14109 1 0.16500 119244.000000
9121 15625 1 0.16500 119244.000000
9122 14109 1 0.16500 119244.000000
9122 15560 1 0.16500 119244.000000
9123 14110 1 0.16500 119244.000000
9123 16112 1 0.16500 119244.000000
9124 14110 1 0.16500 119244.000000
9124 15091 1 0.16500 119244.000000
9125 14110 1 0.16500 119244.000000
9125 15884 1 0.16500 119244.000000
9126 15521 1 0.16500 119244.000000
9126 15884 1 0.16500 119244.000000
9127 14111 1 0.16500 119244.000000
9127 16179 1 0.16500 119244.000000
9128 12606 1 0.16500 119244.000000
9128 14111 1 0.16500 119244.000000
9129 14113 1 0.16500 119244.000000
9129 14529 1 0.16500 119244.000000
9130 13219 1 0.16500 119244.000000
9130 14114 1 0.16500 119244.000000
9131 14114 1 0.16500 119244.000000
9131 14436 1 0.16500 119244.000000
9132 14114 1 0.16500 119244.000000
9132 14968 1 0.16500 119244.000000
9133 14114 1 0.16500 119244.000000
9133 16225 1 0.16500 119244.000000
9134 12066 1 0.16500 119244.000000
9134 15766 1 0.16500 119244.000000
9135 14117 1 0.16500 119244.000000
9135 15978 1 0.16500 119244.000000
9136 14117 1 0.16500 119244.000000
9136 15096 1 0.16500 119244.000000
9137 14118 1 0.16500 119244.000000
9137 14407 1 0.16500 119244.000000
9138 14118 1 0.16500 119244.000000
9138 14227 1 0.16500 119244.000000
9139 15889 1 0.16500 119244.000000
9139 22753 1 0.16500 119244.000000
9140 14416 1 0.16500 119244.000000
9140 22753 1 0.16500 119244.000000
9141 14119 1 0.16500 119244.000000
9141 15870 1 0.16500 119244.000000
9142 14120 1 0.16500 119244.000000
9142 14595 1 0.16500 119244.000000
9143 23995 1 0.16500 119244.000000
9143 24100 1 0.16500 119244.000000
9144 14367 1 0.16500 119244.000000
9144 23995 1 0.16500 119244.000000
9145 14121 1 0.16500 119244.000000
9145 14899 1 0.16500 119244.000000
9146 15373 1 0.16500 119244.000000
9146 16027 1 0.16500 119244.000000
9147 14613 1 0.16500 119244.000000
9147 15373 1 0.16500 119244.000000
9148 14123 1 0.16500 119244.000000
9148 15373 1 0.16500 119244.000000
9149 14124 1 0.16500 119244.000000
9149 16128 1 0.16500 119244.000000
9150 14124 1 0.16500 119244.000000
9150 15442 1 0.16500 119244.000000
9151 14124 1 0.16500 119244.000000
9151 14241 1 0.16500 119244.000000
9152 14125 1 0.16500 119244.000000
9152 14687 1 0.16500 119244.000000
9153 14125 1 0.16500 119244.000000
9153 15360 1 0.16500 119244.000000
9154 14125 1 0.16500 119244.000000
9154 15404 1 0.16500 119244.000000
9155 14126 1 0.16500 119244.000000
9155 15778 1 0.16500 119244.000000
9156 14127 1 0.16500 119244.000000
9156 15382 1 0.16500 119244.000000
9157 14127 1 0.16500 119244.000000
9157 15663 1 0.16500 119244.000000
9158 14128 1 0.16500 119244.000000
9158 15426 1 0.16500 119244.000000
9159 12665 1 0.16500 119244.000000
9159 14473 1 0.16500 119244.000000
9160 14129 1 0.16500 119244.000000
9160 15675 1 0.16500 119244.000000
9161 14129 1 0.16500 119244.000000
9161 15498 1 0.16500 119244.000000
9162 14129 1 0.16500 119244.000000
9162 15205 1 0.16500 119244.000000
9163 14130 1 0.16500 119244.000000
9163 14452 1 0.16500 119244.000000
9164 14130 1 0.16500 119244.000000
9164 21697 1 0.16500 119244.000000
9165 14130 1 0.16500 119244.000000
9165 16274 1 0.16500 119244.000000
9166 14131 1 0.16500 119244.000000
9166 16172 1 0.16500 119244.000000
9167 14131 1 0.16500 119244.000000
9167 15001 1 0.16500 119244.000000
9168 14132 1 0.16500 119244.000000
9168 15439 1 0.16500 119244.000000
9169 14134 1 0.16500 119244.000000
9169 15084 1 0.16500 119244.000000
9170 14136 1 0.16500 119244.000000
9170 14949 1 0.16500 119244.000000
9171 14136 1 0.16500 119244.000000
9171 16063 1 0.16500 119244.000000
9172 12366 1 0.16500 119244.000000
9172 24229 1 0.16500 119244.000000
9173 14137 1 0.16500 119244.000000
9173 15302 1 0.16500 119244.000000
9174 11770 1 0.16500 119244.000000
9174 16160 1 0.16500 119244.000000
9175 14939 1 0.16500 119244.000000
9175 15302 1 0.16500 119244.000000
9176 14138 1 0.16500 119244.000000
9176 14783 1 0.16500 119244.000000
9177 14138 1 0.16500 119244.000000
9177 15767 1 0.16500 119244.000000
9178 14139 1 0.16500 119244.000000
9178 14558 1 0.16500 119244.000000
9179 14140 1 0.16500 119244.000000
9179 15065 1 0.16500 119244.000000
9180 13639 1 0.16500 119244.000000
9180 14978 1 0.16500 119244.000000
9181 14140 1 0.16500 119244.000000
9181 15964 1 0.16500 119244.000000
9182 14141 1 0.16500 119244.000000
9182 15702 1 0.16500 119244.000000
9183 14143 1 0.16500 119244.000000
9183 20617 1 0.16500 119244.000000
9184 14143 1 0.16500 119244.000000
9184 14369 1 0.16500 119244.000000
9185 14144 1 0.16500 119244.000000
9185 15734 1 0.16500 119244.000000
9186 14146 1 0.16500 119244.000000
9186 16091 1 0.16500 119244.000000
9187 14147 1 0.16500 119244.000000
9187 14312 1 0.16500 119244.000000
9188 14148 1 0.16500 119244.000000
9188 14950 1 0.16500 119244.000000
9189 18229 1 0.16500 119244.000000
9189 22237 1 0.16500 119244.000000
9190 14839 1 0.16500 119244.000000
9190 22237 1 0.16500 119244.000000
9191 19813 1 0.16500 119244.000000
9191 22237 1 0.16500 119244.000000
9192 14149 1 0.16500 119244.000000
9192 14584 1 0.16500 119244.000000
9193 17165 1 0.16500 119244.000000
9193 17571 1 0.16500 119244.000000
9194 20569 1 0.16500 119244.000000
9194 22081 1 0.16500 119244.000000
9195 14150 1 0.16500 119244.000000
9195 16197 1 0.16500 119244.000000
9196 14151 1 0.16500 119244.000000
9196 15695 1 0.16500 119244.000000
9197 14151 1 0.16500 119244.000000
9197 15314 1 0.16500 119244.000000
9198 14152 1 0.16500 119244.000000
9198 15164 1 0.16500 119244.000000
9199 14152 1 0.16500 119244.000000
9199 15682 1 0.16500 119244.000000
9200 14152 1 0.16500 119244.000000
9200 15683 1 0.16500 119244.000000
9201 14153 1 0.16500 119244.000000
9201 14877 1 0.16500 119244.000000
9202 14153 1 0.16500 119244.000000
9202 24256 1 0.16500 119244.000000
9203 14154 1 0.16500 119244.000000
9203 15665 1 0.16500 119244.000000
9204 14154 1 0.16500 119244.000000
9204 15000 1 0.16500 119244.000000
9205 14155 1 0.16500 119244.000000
9205 16104 1 0.16500 119244.000000
9206 14155 1 0.16500 119244.000000
9206 14436 1 0.16500 119244.000000
9207 14157 1 0.16500 119244.000000
9207 16108 1 0.16500 119244.000000
9208 14157 1 0.16500 119244.000000
9208 15782 1 0.16500 119244.000000
9209 14157 1 0.16500 119244.000000
9209 14989 1 0.16500 119244.000000
9210 14158 1 0.16500 119244.000000
9210 15294 1 0.16500 119244.000000
9211 14158 1 0.16500 119244.000000
9211 16205 1 0.16500 119244.000000
9212 14158 1 0.16500 119244.000000
9212 15204 1 0.16500 119244.000000
9213 14159 1 0.16500 119244.000000
9213 14204 1 0.16500 119244.000000
9214 14160 1 0.16500 119244.000000
9214 14811 1 0.16500 119244.000000
9215 14161 1 0.16500 119244.000000
9215 15380 1 0.16500 119244.000000
9216 14250 1 0.16500 119244.000000
9216 15548 1 0.16500 119244.000000
9217 14564 1 0.16500 119244.000000
9217 15906 1 0.16500 119244.000000
9218 14162 1 0.16500 119244.000000
9218 14564 1 0.16500 119244.000000
9219 14163 1 0.16500 119244.000000
9219 14174 1 0.16500 119244.000000
9220 14164 1 0.16500 119244.000000
9220 14854 1 0.16500 119244.000000
9221 14164 1 0.16500 119244.000000
9221 15715 1 0.16500 119244.000000
9222 14165 1 0.16500 119244.000000
9222 14992 1 0.16500 119244.000000
9223 14166 1 0.16500 119244.000000
9223 14432 1 0.16500 119244.000000
9224 14166 1 0.16500 119244.000000
9224 14517 1 0.16500 119244.000000
9225 14167 1 0.16500 119244.000000
9225 14950 1 0.16500 119244.000000
9226 14168 1 0.16500 119244.000000
9226 15086 1 0.16500 119244.000000
9227 14168 1 0.16500 119244.000000
9227 14301 1 0.16500 119244.000000
9228 12195 1 0.16500 119244.000000
9228 14169 1 0.16500 119244.000000
9229 14170 1 0.16500 119244.000000
9229 14712 1 0.16500 119244.000000
9230 14170 1 0.16500 119244.000000
9230 14331 1 0.16500 119244.000000
9231 14170 1 0.16500 119244.000000
9231 15980 1 0.16500 119244.000000
9232 14173 1 0.16500 119244.000000
9232 15505 1 0.16500 119244.000000
9233 14173 1 0.16500 119244.000000
9233 15504 1 0.16500 119244.000000
9234 14175 1 0.16500 119244.000000
9234 15136 1 0.16500 119244.000000
9235 14175 1 0.16500 119244.000000
9235 14413 1 0.16500 119244.000000
9236 14176 1 0.16500 119244.000000
9236 15514 1 0.16500 119244.000000
9237 14176 1 0.16500 119244.000000
9237 14502 1 0.16500 119244.000000
9238 14177 1 0.16500 119244.000000
9238 16003 1 0.16500 119244.000000
9239 14177 1 0.16500 119244.000000
9239 14598 1 0.16500 119244.000000
9240 14178 1 0.16500 119244.000000
9240 14924 1 0.16500 119244.000000
9241 14178 1 0.16500 119244.000000
9241 14487 1 0.16500 119244.000000
9242 14178 1 0.16500 119244.000000
9242 15830 1 0.16500 119244.000000
9243 14179 1 0.16500 119244.000000
9243 16042 1 0.16500 119244.000000
9244 14179 1 0.16500 119244.000000
9244 14231 1 0.16500 119244.000000
9245 14180 1 0.16500 119244.000000
9245 15263 1 0.16500 119244.000000
9246 14180 1 0.16500 119244.000000
9246 14478 1 0.16500 119244.000000
9247 14180 1 0.16500 119244.000000
9247 24241 1 0.16500 119244.000000
9248 14181 1 0.16500 119244.000000
9248 15391 1 0.16500 119244.000000
9249 14181 1 0.16500 119244.000000
9249 14188 1 0.16500 119244.000000
9250 14181 1 0.16500 119244.000000
9250 14298 1 0.16500 119244.000000
9251 14182 1 0.16500 119244.000000
9251 14480 1 0.16500 119244.000000
9252 14182 1 0.16500 119244.000000
9252 15225 1 0.16500 119244.000000
9253 14183 1 0.16500 119244.000000
9253 16238 1 0.16500 119244.000000
9254 15946 1 0.16500 119244.000000
9254 21805 1 0.16500 119244.000000
9255 14184 1 0.16500 119244.000000
9255 14704 1 0.16500 119244.000000
9256 14184 1 0.16500 119244.000000
9256 14332 1 0.16500 119244.000000
9257 14185 1 0.16500 119244.000000
9257 15718 1 0.16500 119244.000000
9258 14185 1 0.16500 119244.000000
9258 15427 1 0.16500 119244.000000
9259 14186 1 0.16500 119244.000000
9259 15553 1 0.16500 119244.000000
9260 14186 1 0.16500 119244.000000
9260 14464 1 0.16500 119244.000000
9261 14187 1 0.16500 119244.000000
9261 14530 1 0.16500 119244.000000
9262 14187 1 0.16500 119244.000000
9262 14898 1 0.16500 119244.000000
9263 15626 1 0.16500 119244.000000
9263 17935 1 0.16500 119244.000000
9264 14700 1 0.16500 119244.000000
9264 17935 1 0.16500 119244.000000
9265 14188 1 0.16500 119244.000000
9265 15601 1 0.16500 119244.000000
9266 14190 1 0.16500 119244.000000
9266 15441 1 0.16500 119244.000000
9267 14190 1 0.16500 119244.000000
9267 14731 1 0.16500 119244.000000
9268 14190 1 0.16500 119244.000000
9268 15934 1 0.16500 119244.000000
9269 14191 1 0.16500 119244.000000
9269 21097 1 0.16500 119244.000000
9270 14192 1 0.16500 119244.000000
9270 19657 1 0.16500 119244.000000
9271 19657 1 0.16500 119244.000000
9271 24103 1 0.16500 119244.000000
9272 14193 1 0.16500 119244.000000
9272 15436 1 0.16500 119244.000000
9273 14193 1 0.16500 119244.000000
9273 14721 1 0.16500 119244.000000
9274 14193 1 0.16500 119244.000000
9274 16108 1 0.16500 119244.000000
9275 14194 1 0.16500 119244.000000
9275 15200 1 0.16500 119244.000000
9276 19297 1 0.16500 119244.000000
9276 21769 1 0.16500 119244.000000
9277 14195 1 0.16500 119244.000000
9277 15428 1 0.16500 119244.000000
9278 14196 1 0.16500 119244.000000
9278 16245 1 0.16500 119244.000000
9279 14197 1 0.16500 119244.000000
9279 15724 1 0.16500 119244.000000
9280 14197 1 0.16500 119244.000000
9280 14211 1 0.16500 119244.000000
9281 14197 1 0.16500 119244.000000
9281 16204 1 0.16500 119244.000000
9282 14198 1 0.16500 119244.000000
9282 14306 1 0.16500 119244.000000
9283 12007 1 0.16500 119244.000000
9283 15422 1 0.16500 119244.000000
9284 24004 1 0.16500 119244.000000
9284 24085 1 0.16500 119244.000000
9285 14200 1 0.16500 119244.000000
9285 15892 1 0.16500 119244.000000
9286 14201 1 0.16500 119244.000000
9286 15518 1 0.16500 119244.000000
9287 14202 1 0.16500 119244.000000
9287 14844 1 0.16500 119244.000000
9288 14202 1 0.16500 119244.000000
9288 14416 1 0.16500 119244.000000
9289 14203 1 0.16500 119244.000000
9289 14848 1 0.16500 119244.000000
9290 14203 1 0.16500 119244.000000
9290 15399 1 0.16500 119244.000000
9291 14203 1 0.16500 119244.000000
9291 15943 1 0.16500 119244.000000
9292 14204 1 0.16500 119244.000000
9292 14942 1 0.16500 119244.000000
9293 14204 1 0.16500 119244.000000
9293 16202 1 0.16500 119244.000000
9294 14206 1 0.16500 119244.000000
9294 15722 1 0.16500 119244.000000
9295 14207 1 0.16500 119244.000000
9295 15831 1 0.16500 119244.000000
9296 14207 1 0.16500 119244.000000
9296 15521 1 0.16500 119244.000000
9297 14208 1 0.16500 119244.000000
9297 16169 1 0.16500 119244.000000
9298 14208 1 0.16500 119244.000000
9298 14456 1 0.16500 119244.000000
9299 14208 1 0.16500 119244.000000
9299 14441 1 0.16500 119244.000000
9300 14209 1 0.16500 119244.000000
9300 15564 1 0.16500 119244.000000
9301 14209 1 0.16500 119244.000000
9301 15297 1 0.16500 119244.000000
9302 14210 1 0.16500 119244.000000
9302 15619 1 0.16500 119244.000000
9303 14210 1 0.16500 119244.000000
9303 15112 1 0.16500 119244.000000
9304 12112 1 0.16500 119244.000000
9304 14211 1 0.16500 119244.000000
9305 14212 1 0.16500 119244.000000
9305 15190 1 0.16500 119244.000000
9306 14212 1 0.16500 119244.000000
9306 15410 1 0.16500 119244.000000
9307 14212 1 0.16500 119244.000000
9307 14582 1 0.16500 119244.000000
9308 14213 1 0.16500 119244.000000
9308 15117 1 0.16500 119244.000000
9309 14215 1 0.16500 119244.000000
9309 16036 1 0.16500 119244.000000
9310 14216 1 0.16500 119244.000000
9310 14479 1 0.16500 119244.000000
9311 14216 1 0.16500 119244.000000
9311 15303 1 0.16500 119244.000000
9312 14217 1 0.16500 119244.000000
9312 15067 1 0.16500 119244.000000
9313 14217 1 0.16500 119244.000000
9313 15956 1 0.16500 119244.000000
9314 14217 1 0.16500 119244.000000
9314 14720 1 0.16500 119244.000000
9315 14219 1 0.16500 119244.000000
9315 15270 1 0.16500 119244.000000
9316 14219 1 0.16500 119244.000000
9316 14936 1 0.16500 119244.000000
9317 14220 1 0.16500 119244.000000
9317 15904 1 0.16500 119244.000000
9318 14223 1 0.16500 119244.000000
9318 14381 1 0.16500 119244.000000
9319 14223 1 0.16500 119244.000000
9319 16175 1 0.16500 119244.000000
9320 14223 1 0.16500 119244.000000
9320 14614 1 0.16500 119244.000000
9321 14224 1 0.16500 119244.000000
9321 14624 1 0.16500 119244.000000
9322 14224 1 0.16500 119244.000000
9322 16207 1 0.16500 119244.000000
9323 14225 1 0.16500 119244.000000
9323 15300 1 0.16500 119244.000000
9324 14226 1 0.16500 119244.000000
9324 15285 1 0.16500 119244.000000
9325 14226 1 0.16500 119244.000000
9325 15072 1 0.16500 119244.000000
9326 14228 1 0.16500 119244.000000
9326 15382 1 0.16500 119244.000000
9327 14228 1 0.16500 119244.000000
9327 15426 1 0.16500 119244.000000
9328 14229 1 0.16500 119244.000000
9328 15357 1 0.16500 119244.000000
9329 11871 1 0.16500 119244.000000
9329 12613 1 0.16500 119244.000000
9330 14230 1 0.16500 119244.000000
9330 15076 1 0.16500 119244.000000
9331 14231 1 0.16500 119244.000000
9331 14742 1 0.16500 119244.000000
9332 14231 1 0.16500 119244.000000
9332 15886 1 0.16500 119244.000000
9333 14231 1 0.16500 119244.000000
9333 15593 1 0.16500 119244.000000
9334 14232 1 0.16500 119244.000000
9334 15114 1 0.16500 119244.000000
9335 13215 1 0.16500 119244.000000
9335 14232 1 0.16500 119244.000000
9336 14233 1 0.16500 119244.000000
9336 14866 1 0.16500 119244.000000
9337 14234 1 0.16500 119244.000000
9337 15440 1 0.16500 119244.000000
9338 14234 1 0.16500 119244.000000
9338 14908 1 0.16500 119244.000000
9339 14235 1 0.16500 119244.000000
9339 16129 1 0.16500 119244.000000
9340 14236 1 0.16500 119244.000000
9340 15288 1 0.16500 119244.000000
9341 14236 1 0.16500 119244.000000
9341 15609 1 0.16500 119244.000000
9342 14237 1 0.16500 119244.000000
9342 15924 1 0.16500 119244.000000
9343 14237 1 0.16500 119244.000000
9343 14733 1 0.16500 119244.000000
9344 14238 1 0.16500 119244.000000
9344 24193 1 0.16500 119244.000000
9345 14238 1 0.16500 119244.000000
9345 15698 1 0.16500 119244.000000
9346 14239 1 0.16500 119244.000000
9346 15012 1 0.16500 119244.000000
9347 14240 1 0.16500 119244.000000
9347 14740 1 0.16500 119244.000000
9348 24007 1 0.16500 119244.000000
9348 24467 1 0.16500 119244.000000
9349 14241 1 0.16500 119244.000000
9349 15564 1 0.16500 119244.000000
9350 14242 1 0.16500 119244.000000
9350 14552 1 0.16500 119244.000000
9351 14243 1 0.16500 119244.000000
9351 14467 1 0.16500 119244.000000
9352 12303 1 0.16500 119244.000000
9352 14243 1 0.16500 119244.000000
9353 14244 1 0.16500 119244.000000
9353 15852 1 0.16500 119244.000000
9354 14245 1 0.16500 119244.000000
9354 16021 1 0.16500 119244.000000
9355 14246 1 0.16500 119244.000000
9355 14709 1 0.16500 119244.000000
9356 14246 1 0.16500 119244.000000
9356 15418 1 0.16500 119244.000000
9357 14247 1 0.16500 119244.000000
9357 14636 1 0.16500 119244.000000
9358 14248 1 0.16500 119244.000000
9358 15580 1 0.16500 119244.000000
9359 14592 1 0.16500 119244.000000
9359 15568 1 0.16500 119244.000000
9360 14248 1 0.16500 119244.000000
9360 14592 1 0.16500 119244.000000
9361 14249 1 0.16500 119244.000000
9361 15406 1 0.16500 119244.000000
9362 14161 1 0.16500 119244.000000
9362 15548 1 0.16500 119244.000000
9363 14251 1 0.16500 119244.000000
9363 15672 1 0.16500 119244.000000
9364 14251 1 0.16500 119244.000000
9364 14314 1 0.16500 119244.000000
9365 14252 1 0.16500 119244.000000
9365 15451 1 0.16500 119244.000000
9366 14252 1 0.16500 119244.000000
9366 14798 1 0.16500 119244.000000
9367 14252 1 0.16500 119244.000000
9367 15785 1 0.16500 119244.000000
9368 14253 1 0.16500 119244.000000
9368 16089 1 0.16500 119244.000000
9369 14253 1 0.16500 119244.000000
9369 15602 1 0.16500 119244.000000
9370 14254 1 0.16500 119244.000000
9370 14508 1 0.16500 119244.000000
9371 14255 1 0.16500 119244.000000
9371 14695 1 0.16500 119244.000000
9372 14255 1 0.16500 119244.000000
9372 15716 1 0.16500 119244.000000
9373 14256 1 0.16500 119244.000000
9373 15798 1 0.16500 119244.000000
9374 14257 1 0.16500 119244.000000
9374 14701 1 0.16500 119244.000000
9375 15868 1 0.16500 119244.000000
9375 24010 1 0.16500 119244.000000
9376 14258 1 0.16500 119244.000000
9376 15915 1 0.16500 119244.000000
9377 14258 1 0.16500 119244.000000
9377 15267 1 0.16500 119244.000000
9378 14259 1 0.16500 119244.000000
9378 15250 1 0.16500 119244.000000
9379 14259 1 0.16500 119244.000000
9379 14493 1 0.16500 119244.000000
9380 14260 1 0.16500 119244.000000
9380 14973 1 0.16500 119244.000000
9381 14260 1 0.16500 119244.000000
9381 16127 1 0.16500 119244.000000
9382 14261 1 0.16500 119244.000000
9382 15912 1 0.16500 119244.000000
9383 14261 1 0.16500 119244.000000
9383 14321 1 0.16500 119244.000000
9384 13892 1 0.16500 119244.000000
9384 14262 1 0.16500 119244.000000
9385 14263 1 0.16500 119244.000000
9385 16204 1 0.16500 119244.000000
9386 14263 1 0.16500 119244.000000
9386 14526 1 0.16500 119244.000000
9387 14263 1 0.16500 119244.000000
9387 16048 1 0.16500 119244.000000
9388 15808 1 0.16500 119244.000000
9388 21721 1 0.16500 119244.000000
9389 14264 1 0.16500 119244.000000
9389 15325 1 0.16500 119244.000000
9390 14264 1 0.16500 119244.000000
9390 14348 1 0.16500 119244.000000
9391 14265 1 0.16500 119244.000000
9391 15404 1 0.16500 119244.000000
9392 14266 1 0.16500 119244.000000
9392 14534 1 0.16500 119244.000000
9393 14267 1 0.16500 119244.000000
9393 14554 1 0.16500 119244.000000
9394 14267 1 0.16500 119244.000000
9394 18625 1 0.16500 119244.000000
9395 14267 1 0.16500 119244.000000
9395 21121 1 0.16500 119244.000000
9396 14268 1 0.16500 119244.000000
9396 15901 1 0.16500 119244.000000
9397 14270 1 0.16500 119244.000000
9397 15476 1 0.16500 119244.000000
9398 14270 1 0.16500 119244.000000
9398 14690 1 0.16500 119244.000000
9399 14270 1 0.16500 119244.000000
9399 15959 1 0.16500 119244.000000
9400 14271 1 0.16500 119244.000000
9400 14348 1 0.16500 119244.000000
9401 14272 1 0.16500 119244.000000
9401 14432 1 0.16500 119244.000000
9402 14273 1 0.16500 119244.000000
9402 24274 1 0.16500 119244.000000
9403 14273 1 0.16500 119244.000000
9403 14458 1 0.16500 119244.000000
9404 14274 1 0.16500 119244.000000
9404 14994 1 0.16500 119244.000000
9405 22153 1 0.16500 119244.000000
9405 24013 1 0.16500 119244.000000
9406 14277 1 0.16500 119244.000000
9406 15038 1 0.16500 119244.000000
9407 14278 1 0.16500 119244.000000
9407 15455 1 0.16500 119244.000000
9408 14278 1 0.16500 119244.000000
9408 15934 1 0.16500 119244.000000
9409 14279 1 0.16500 119244.000000
9409 15689 1 0.16500 119244.000000
9410 14280 1 0.16500 119244.000000
9410 15369 1 0.16500 119244.000000
9411 14280 1 0.16500 119244.000000
9411 15935 1 0.16500 119244.000000
9412 14281 1 0.16500 119244.000000
9412 14306 1 0.16500 119244.000000
9413 14281 1 0.16500 119244.000000
9413 15226 1 0.16500 119244.000000
9414 14282 1 0.16500 119244.000000
9414 15235 1 0.16500 119244.000000
9415 14283 1 0.16500 119244.000000
9415 14661 1 0.16500 119244.000000
9416 14283 1 0.16500 119244.000000
9416 15391 1 0.16500 119244.000000
9417 14283 1 0.16500 119244.000000
9417 14980 1 0.16500 119244.000000
9418 14283 1 0.16500 119244.000000
9418 16278 1 0.16500 119244.000000
9419 14284 1 0.16500 119244.000000
9419 14583 1 0.16500 119244.000000
9420 14285 1 0.16500 119244.000000
9420 15957 1 0.16500 119244.000000
9421 12792 1 0.16500 119244.000000
9421 14285 1 0.16500 119244.000000
9422 14285 1 0.16500 119244.000000
9422 15018 1 0.16500 119244.000000
9423 14286 1 0.16500 119244.000000
9423 14617 1 0.16500 119244.000000
9424 14286 1 0.16500 119244.000000
9424 20497 1 0.16500 119244.000000
9425 14286 1 0.16500 119244.000000
9425 15536 1 0.16500 119244.000000
9426 14287 1 0.16500 119244.000000
9426 14352 1 0.16500 119244.000000
9427 14288 1 0.16500 119244.000000
9427 14928 1 0.16500 119244.000000
9428 14289 1 0.16500 119244.000000
9428 14508 1 0.16500 119244.000000
9429 14289 1 0.16500 119244.000000
9429 16249 1 0.16500 119244.000000
9430 14675 1 0.16500 119244.000000
9430 24016 1 0.16500 119244.000000
9431 14290 1 0.16500 119244.000000
9431 15673 1 0.16500 119244.000000
9432 14291 1 0.16500 119244.000000
9432 14368 1 0.16500 119244.000000
9433 14291 1 0.16500 119244.000000
9433 14976 1 0.16500 119244.000000
9434 14292 1 0.16500 119244.000000
9434 16236 1 0.16500 119244.000000
9435 14293 1 0.16500 119244.000000
9435 15718 1 0.16500 119244.000000
9436 14293 1 0.16500 119244.000000
9436 16208 1 0.16500 119244.000000
9437 14294 1 0.16500 119244.000000
9437 14460 1 0.16500 119244.000000
9438 14296 1 0.16500 119244.000000
9438 14801 1 0.16500 119244.000000
9439 14296 1 0.16500 119244.000000
9439 16265 1 0.16500 119244.000000
9440 14297 1 0.16500 119244.000000
9440 15001 1 0.16500 119244.000000
9441 14298 1 0.16500 119244.000000
9441 24166 1 0.16500 119244.000000
9442 14299 1 0.16500 119244.000000
9442 15157 1 0.16500 119244.000000
9443 14299 1 0.16500 119244.000000
9443 15854 1 0.16500 119244.000000
9444 14300 1 0.16500 119244.000000
9444 15789 1 0.16500 119244.000000
9445 14301 1 0.16500 119244.000000
9445 14639 1 0.16500 119244.000000
9446 14301 1 0.16500 119244.000000
9446 15225 1 0.16500 119244.000000
9447 14301 1 0.16500 119244.000000
9447 14635 1 0.16500 119244.000000
9448 14302 1 0.16500 119244.000000
9448 15510 1 0.16500 119244.000000
9449 14302 1 0.16500 119244.000000
9449 14700 1 0.16500 119244.000000
9450 14302 1 0.16500 119244.000000
9450 15851 1 0.16500 119244.000000
9451 14303 1 0.16500 119244.000000
9451 16140 1 0.16500 119244.000000
9452 13770 1 0.16500 119244.000000
9452 14326 1 0.16500 119244.000000
9453 14304 1 0.16500 119244.000000
9453 15262 1 0.16500 119244.000000
9454 14304 1 0.16500 119244.000000
9454 14412 1 0.16500 119244.000000
9455 14305 1 0.16500 119244.000000
9455 14984 1 0.16500 119244.000000
9456 16158 1 0.16500 119244.000000
9456 16521 1 0.16500 119244.000000
9457 14306 1 0.16500 119244.000000
9457 14886 1 0.16500 119244.000000
9458 20989 1 0.16500 119244.000000
9458 24019 1 0.16500 119244.000000
9459 14307 1 0.16500 119244.000000
9459 15310 1 0.16500 119244.000000
9460 14307 1 0.16500 119244.000000
9460 20149 1 0.16500 119244.000000
9461 14308 1 0.16500 119244.000000
9461 15968 1 0.16500 119244.000000
9462 14308 1 0.16500 119244.000000
9462 15763 1 0.16500 119244.000000
9463 14308 1 0.16500 119244.000000
9463 14824 1 0.16500 119244.000000
9464 14707 1 0.16500 119244.000000
9464 16549 1 0.16500 119244.000000
9465 12669 1 0.16500 119244.000000
9465 14564 1 0.16500 119244.000000
9466 14309 1 0.16500 119244.000000
9466 14768 1 0.16500 119244.000000
9467 14310 1 0.16500 119244.000000
9467 15482 1 0.16500 119244.000000
9468 14310 1 0.16500 119244.000000
9468 14643 1 0.16500 119244.000000
9469 12421 1 0.16500 119244.000000
9469 14311 1 0.16500 119244.000000
9470 14311 1 0.16500 119244.000000
9470 15818 1 0.16500 119244.000000
9471 14311 1 0.16500 119244.000000
9471 24223 1 0.16500 119244.000000
9472 14313 1 0.16500 119244.000000
9472 15476 1 0.16500 119244.000000
9473 14314 1 0.16500 119244.000000
9473 14427 1 0.16500 119244.000000
9474 14314 1 0.16500 119244.000000
9474 15979 1 0.16500 119244.000000
9475 14315 1 0.16500 119244.000000
9475 16262 1 0.16500 119244.000000
9476 14315 1 0.16500 119244.000000
9476 14884 1 0.16500 119244.000000
9477 14315 1 0.16500 119244.000000
9477 14828 1 0.16500 119244.000000
9478 14316 1 0.16500 119244.000000
9478 15787 1 0.16500 119244.000000
9479 14317 1 0.16500 119244.000000
9479 20665 1 0.16500 119244.000000
9480 14317 1 0.16500 119244.000000
9480 15668 1 0.16500 119244.000000
9481 14318 1 0.16500 119244.000000
9481 14644 1 0.16500 119244.000000
9482 14319 1 0.16500 119244.000000
9482 15220 1 0.16500 119244.000000
9483 14320 1 0.16500 119244.000000
9483 15186 1 0.16500 119244.000000
9484 14321 1 0.16500 119244.000000
9484 16202 1 0.16500 119244.000000
9485 14261 1 0.16500 119244.000000
9485 14577 1 0.16500 119244.000000
9486 12245 1 0.16500 119244.000000
9486 15025 1 0.16500 119244.000000
9487 14322 1 0.16500 119244.000000
9487 14371 1 0.16500 119244.000000
9488 14323 1 0.16500 119244.000000
9488 16119 1 0.16500 119244.000000
9489 14323 1 0.16500 119244.000000
9489 14945 1 0.16500 119244.000000
9490 14324 1 0.16500 119244.000000
9490 14764 1 0.16500 119244.000000
9491 14324 1 0.16500 119244.000000
9491 14576 1 0.16500 119244.000000
9492 17305 1 0.16500 119244.000000
9492 21097 1 0.16500 119244.000000
9493 14325 1 0.16500 119244.000000
9493 15421 1 0.16500 119244.000000
9494 14326 1 0.16500 119244.000000
9494 14450 1 0.16500 119244.000000
9495 14327 1 0.16500 119244.000000
9495 15115 1 0.16500 119244.000000
9496 14328 1 0.16500 119244.000000
9496 14708 1 0.16500 119244.000000
9497 14329 1 0.16500 119244.000000
9497 15356 1 0.16500 119244.000000
9498 14329 1 0.16500 119244.000000
9498 14825 1 0.16500 119244.000000
9499 14330 1 0.16500 119244.000000
9499 15313 1 0.16500 119244.000000
9500 15727 1 0.16500 119244.000000
9500 17221 1 0.16500 119244.000000
9501 14332 1 0.16500 119244.000000
9501 14348 1 0.16500 119244.000000
9502 14332 1 0.16500 119244.000000
9502 14787 1 0.16500 119244.000000
9503 14334 1 0.16500 119244.000000
9503 16144 1 0.16500 119244.000000
9504 14335 1 0.16500 119244.000000
9504 24175 1 0.16500 119244.000000
9505 15499 1 0.16500 119244.000000
9505 15958 1 0.16500 119244.000000
9506 15499 1 0.16500 119244.000000
9506 19645 1 0.16500 119244.000000
9507 14336 1 0.16500 119244.000000
9507 15402 1 0.16500 119244.000000
9508 13327 1 0.16500 119244.000000
9508 14336 1 0.16500 119244.000000
9509 14337 1 0.16500 119244.000000
9509 14911 1 0.16500 119244.000000
9510 12394 1 0.16500 119244.000000
9510 15435 1 0.16500 119244.000000
9511 14338 1 0.16500 119244.000000
9511 14398 1 0.16500 119244.000000
9512 14338 1 0.16500 119244.000000
9512 15325 1 0.16500 119244.000000
9513 14340 1 0.16500 119244.000000
9513 14372 1 0.16500 119244.000000
9514 14340 1 0.16500 119244.000000
9514 14858 1 0.16500 119244.000000
9515 14340 1 0.16500 119244.000000
9515 14773 1 0.16500 119244.000000
9516 14340 1 0.16500 119244.000000
9516 16202 1 0.16500 119244.000000
9517 11949 1 0.16500 119244.000000
9517 15421 1 0.16500 119244.000000
9518 14342 1 0.16500 119244.000000
9518 15560 1 0.16500 119244.000000
9519 14343 1 0.16500 119244.000000
9519 14488 1 0.16500 119244.000000
9520 14914 1 0.16500 119244.000000
9520 23245 1 0.16500 119244.000000
9521 14344 1 0.16500 119244.000000
9521 14425 1 0.16500 119244.000000
9522 14345 1 0.16500 119244.000000
9522 16275 1 0.16500 119244.000000
9523 14346 1 0.16500 119244.000000
9523 16132 1 0.16500 119244.000000
9524 14346 1 0.16500 119244.000000
9524 16074 1 0.16500 119244.000000
9525 14347 1 0.16500 119244.000000
9525 15565 1 0.16500 119244.000000
9526 15042 1 0.16500 119244.000000
9526 20665 1 0.16500 119244.000000
9527 14349 1 0.16500 119244.000000
9527 15351 1 0.16500 119244.000000
9528 14349 1 0.16500 119244.000000
9528 15571 1 0.16500 119244.000000
9529 14350 1 0.16500 119244.000000
9529 14421 1 0.16500 119244.000000
9530 14350 1 0.16500 119244.000000
9530 14493 1 0.16500 119244.000000
9531 14350 1 0.16500 119244.000000
9531 15388 1 0.16500 119244.000000
9532 15012 1 0.16500 119244.000000
9532 15500 1 0.16500 119244.000000
9533 14351 1 0.16500 119244.000000
9533 15012 1 0.16500 119244.000000
9534 14351 1 0.16500 119244.000000
9534 16225 1 0.16500 119244.000000
9535 14352 1 0.16500 119244.000000
9535 14807 1 0.16500 119244.000000
9536 14353 1 0.16500 119244.000000
9536 15761 1 0.16500 119244.000000
9537 14353 1 0.16500 119244.000000
9537 15240 1 0.16500 119244.000000
9538 14354 1 0.16500 119244.000000
9538 14529 1 0.16500 119244.000000
9539 14354 1 0.16500 119244.000000
9539 16111 1 0.16500 119244.000000
9540 14355 1 0.16500 119244.000000
9540 14479 1 0.16500 119244.000000
9541 14356 1 0.16500 119244.000000
9541 18637 1 0.16500 119244.000000
9542 14356 1 0.16500 119244.000000
9542 16409 1 0.16500 119244.000000
9543 14356 1 0.16500 119244.000000
9543 15735 1 0.16500 119244.000000
9544 14356 1 0.16500 119244.000000
9544 14751 1 0.16500 119244.000000
9545 14357 1 0.16500 119244.000000
9545 15039 1 0.16500 119244.000000
9546 14358 1 0.16500 119244.000000
9546 16107 1 0.16500 119244.000000
9547 14780 1 0.16500 119244.000000
9547 24025 1 0.16500 119244.000000
9548 14475 1 0.16500 119244.000000
9548 24025 1 0.16500 119244.000000
9549 15409 1 0.16500 119244.000000
9549 20701 1 0.16500 119244.000000
9550 14360 1 0.16500 119244.000000
9550 15055 1 0.16500 119244.000000
9551 14360 1 0.16500 119244.000000
9551 15122 1 0.16500 119244.000000
9552 14361 1 0.16500 119244.000000
9552 15836 1 0.16500 119244.000000
9553 14361 1 0.16500 119244.000000
9553 15760 1 0.16500 119244.000000
9554 14361 1 0.16500 119244.000000
9554 14871 1 0.16500 119244.000000
9555 14362 1 0.16500 119244.000000
9555 15365 1 0.16500 119244.000000
9556 14363 1 0.16500 119244.000000
9556 18649 1 0.16500 119244.000000
9557 14363 1 0.16500 119244.000000
9557 24049 1 0.16500 119244.000000
9558 21325 1 0.16500 119244.000000
9558 24136 1 0.16500 119244.000000
9559 14364 1 0.16500 119244.000000
9559 14817 1 0.16500 119244.000000
9560 14364 1 0.16500 119244.000000
9560 15458 1 0.16500 119244.000000
9561 14365 1 0.16500 119244.000000
9561 22705 1 0.16500 119244.000000
9562 14365 1 0.16500 119244.000000
9562 19873 1 0.16500 119244.000000
9563 14712 1 0.16500 119244.000000
9563 19045 1 0.16500 119244.000000
9564 14366 1 0.16500 119244.000000
9564 14724 1 0.16500 119244.000000
9565 14367 1 0.16500 119244.000000
9565 16082 1 0.16500 119244.000000
9566 14367 1 0.16500 119244.000000
9566 15902 1 0.16500 119244.000000
9567 14291 1 0.16500 119244.000000
9567 15233 1 0.16500 119244.000000
9568 13719 1 0.16500 119244.000000
9568 17641 1 0.16500 119244.000000
9569 14369 1 0.16500 119244.000000
9569 15300 1 0.16500 119244.000000
9570 14369 1 0.16500 119244.000000
9570 14845 1 0.16500 119244.000000
9571 14370 1 0.16500 119244.000000
9571 14807 1 0.16500 119244.000000
9572 14372 1 0.16500 119244.000000
9572 14943 1 0.16500 119244.000000
9573 14373 1 0.16500 119244.000000
9573 15660 1 0.16500 119244.000000
9574 14374 1 0.16500 119244.000000
9574 18613 1 0.16500 119244.000000
9575 14374 1 0.16500 119244.000000
9575 19477 1 0.16500 119244.000000
9576 14375 1 0.16500 119244.000000
9576 15975 1 0.16500 119244.000000
9577 14375 1 0.16500 119244.000000
9577 16180 1 0.16500 119244.000000
9578 14376 1 0.16500 119244.000000
9578 16007 1 0.16500 119244.000000
9579 14377 1 0.16500 119244.000000
9579 14865 1 0.16500 119244.000000
9580 14378 1 0.16500 119244.000000
9580 16223 1 0.16500 119244.000000
9581 14379 1 0.16500 119244.000000
9581 20425 1 0.16500 119244.000000
9582 14379 1 0.16500 119244.000000
9582 15537 1 0.16500 119244.000000
9583 14379 1 0.16500 119244.000000
9583 17977 1 0.16500 119244.000000
9584 14382 1 0.16500 119244.000000
9584 16012 1 0.16500 119244.000000
9585 14382 1 0.16500 119244.000000
9585 15526 1 0.16500 119244.000000
9586 14383 1 0.16500 119244.000000
9586 16052 1 0.16500 119244.000000
9587 14384 1 0.16500 119244.000000
9587 15791 1 0.16500 119244.000000
9588 14385 1 0.16500 119244.000000
9588 15972 1 0.16500 119244.000000
9589 14385 1 0.16500 119244.000000
9589 15971 1 0.16500 119244.000000
9590 14385 1 0.16500 119244.000000
9590 15208 1 0.16500 119244.000000
9591 14387 1 0.16500 119244.000000
9591 14699 1 0.16500 119244.000000
9592 14387 1 0.16500 119244.000000
9592 14751 1 0.16500 119244.000000
9593 14388 1 0.16500 119244.000000
9593 15537 1 0.16500 119244.000000
9594 14388 1 0.16500 119244.000000
9594 15410 1 0.16500 119244.000000
9595 14389 1 0.16500 119244.000000
9595 15682 1 0.16500 119244.000000
9596 14389 1 0.16500 119244.000000
9596 14463 1 0.16500 119244.000000
9597 14997 1 0.16500 119244.000000
9597 15682 1 0.16500 119244.000000
9598 14390 1 0.16500 119244.000000
9598 14485 1 0.16500 119244.000000
9599 14390 1 0.16500 119244.000000
9599 15793 1 0.16500 119244.000000
9600 14391 1 0.16500 119244.000000
9600 15541 1 0.16500 119244.000000
9601 14618 1 0.16500 119244.000000
9601 24028 1 0.16500 119244.000000
9602 24028 1 0.16500 119244.000000
9602 24139 1 0.16500 119244.000000
9603 14392 1 0.16500 119244.000000
9603 24094 1 0.16500 119244.000000
9604 14393 1 0.16500 119244.000000
9604 15745 1 0.16500 119244.000000
9605 14393 1 0.16500 119244.000000
9605 14529 1 0.16500 119244.000000
9606 15518 1 0.16500 119244.000000
9606 21013 1 0.16500 119244.000000
9607 14394 1 0.16500 119244.000000
9607 15334 1 0.16500 119244.000000
9608 14394 1 0.16500 119244.000000
9608 15592 1 0.16500 119244.000000
9609 14395 1 0.16500 119244.000000
9609 15844 1 0.16500 119244.000000
9610 15844 1 0.16500 119244.000000
9610 15866 1 0.16500 119244.000000
9611 15751 1 0.16500 119244.000000
9611 15844 1 0.16500 119244.000000
9612 14396 1 0.16500 119244.000000
9612 15922 1 0.16500 119244.000000
9613 14396 1 0.16500 119244.000000
9613 15361 1 0.16500 119244.000000
9614 14397 1 0.16500 119244.000000
9614 15059 1 0.16500 119244.000000
9615 14397 1 0.16500 119244.000000
9615 15387 1 0.16500 119244.000000
9616 14399 1 0.16500 119244.000000
9616 15372 1 0.16500 119244.000000
9617 14399 1 0.16500 119244.000000
9617 16141 1 0.16500 119244.000000
9618 14400 1 0.16500 119244.000000
9618 15544 1 0.16500 119244.000000
9619 14401 1 0.16500 119244.000000
9619 15080 1 0.16500 119244.000000
9620 14402 1 0.16500 119244.000000
9620 16173 1 0.16500 119244.000000
9621 14780 1 0.16500 119244.000000
9621 19861 1 0.16500 119244.000000
9622 16787 1 0.16500 119244.000000
9622 20749 1 0.16500 119244.000000
9623 14406 1 0.16500 119244.000000
9623 15896 1 0.16500 119244.000000
9624 14406 1 0.16500 119244.000000
9624 15880 1 0.16500 119244.000000
9625 14406 1 0.16500 119244.000000
9625 15703 1 0.16500 119244.000000
9626 14408 1 0.16500 119244.000000
9626 15926 1 0.16500 119244.000000
9627 14408 1 0.16500 119244.000000
9627 15141 1 0.16500 119244.000000
9628 14408 1 0.16500 119244.000000
9628 15172 1 0.16500 119244.000000
9629 14408 1 0.16500 119244.000000
9629 14489 1 0.16500 119244.000000
9630 14409 1 0.16500 119244.000000
9630 15843 1 0.16500 119244.000000
9631 14409 1 0.16500 119244.000000
9631 14703 1 0.16500 119244.000000
9632 14410 1 0.16500 119244.000000
9632 15427 1 0.16500 119244.000000
9633 15252 1 0.16500 119244.000000
9633 15427 1 0.16500 119244.000000
9634 14410 1 0.16500 119244.000000
9634 16208 1 0.16500 119244.000000
9635 14411 1 0.16500 119244.000000
9635 14775 1 0.16500 119244.000000
9636 14411 1 0.16500 119244.000000
9636 14847 1 0.16500 119244.000000
9637 14412 1 0.16500 119244.000000
9637 15415 1 0.16500 119244.000000
9638 14413 1 0.16500 119244.000000
9638 16126 1 0.16500 119244.000000
9639 14413 1 0.16500 119244.000000
9639 16209 1 0.16500 119244.000000
9640 14414 1 0.16500 119244.000000
9640 14946 1 0.16500 119244.000000
9641 14415 1 0.16500 119244.000000
9641 14702 1 0.16500 119244.000000
9642 14416 1 0.16500 119244.000000
9642 19477 1 0.16500 119244.000000
9643 14416 1 0.16500 119244.000000
9643 18173 1 0.16500 119244.000000
9644 16028 1 0.16500 119244.000000
9644 24442 1 0.16500 119244.000000
9645 18313 1 0.16500 119244.000000
9645 24442 1 0.16500 119244.000000
9646 14417 1 0.16500 119244.000000
9646 15725 1 0.16500 119244.000000
9647 14417 1 0.16500 119244.000000
9647 15569 1 0.16500 119244.000000
9648 18601 1 0.16500 119244.000000
9648 24115 1 0.16500 119244.000000
9649 14419 1 0.16500 119244.000000
9649 15485 1 0.16500 119244.000000
9650 14419 1 0.16500 119244.000000
9650 15727 1 0.16500 119244.000000
9651 14419 1 0.16500 119244.000000
9651 15909 1 0.16500 119244.000000
9652 14420 1 0.16500 119244.000000
9652 24181 1 0.16500 119244.000000
9653 15021 1 0.16500 119244.000000
9653 24031 1 0.16500 119244.000000
9654 15616 1 0.16500 119244.000000
9654 19009 1 0.16500 119244.000000
9655 15286 1 0.16500 119244.000000
9655 15471 1 0.16500 119244.000000
9656 14423 1 0.16500 119244.000000
9656 15471 1 0.16500 119244.000000
9657 14424 1 0.16500 119244.000000
9657 15068 1 0.16500 119244.000000
9658 14425 1 0.16500 119244.000000
9658 15313 1 0.16500 119244.000000
9659 14425 1 0.16500 119244.000000
9659 15005 1 0.16500 119244.000000
9660 14425 1 0.16500 119244.000000
9660 15917 1 0.16500 119244.000000
9661 14426 1 0.16500 119244.000000
9661 15579 1 0.16500 119244.000000
9662 14426 1 0.16500 119244.000000
9662 14827 1 0.16500 119244.000000
9663 14426 1 0.16500 119244.000000
9663 14506 1 0.16500 119244.000000
9664 14427 1 0.16500 119244.000000
9664 15770 1 0.16500 119244.000000
9665 14428 1 0.16500 119244.000000
9665 24052 1 0.16500 119244.000000
9666 14428 1 0.16500 119244.000000
9666 14786 1 0.16500 119244.000000
9667 14429 1 0.16500 119244.000000
9667 15694 1 0.16500 119244.000000
9668 14429 1 0.16500 119244.000000
9668 18757 1 0.16500 119244.000000
9669 14429 1 0.16500 119244.000000
9669 14575 1 0.16500 119244.000000
9670 14429 1 0.16500 119244.000000
9670 15384 1 0.16500 119244.000000
9671 14430 1 0.16500 119244.000000
9671 14619 1 0.16500 119244.000000
9672 21289 1 0.16500 119244.000000
9672 24034 1 0.16500 119244.000000
9673 16081 1 0.16500 119244.000000
9673 23437 1 0.16500 119244.000000
9674 14431 1 0.16500 119244.000000
9674 14707 1 0.16500 119244.000000
9675 14432 1 0.16500 119244.000000
9675 15713 1 0.16500 119244.000000
9676 14433 1 0.16500 119244.000000
9676 14566 1 0.16500 119244.000000
9677 14434 1 0.16500 119244.000000
9677 15199 1 0.16500 119244.000000
9678 14434 1 0.16500 119244.000000
9678 22897 1 0.16500 119244.000000
9679 14434 1 0.16500 119244.000000
9679 22273 1 0.16500 119244.000000
9680 14435 1 0.16500 119244.000000
9680 16113 1 0.16500 119244.000000
9681 14435 1 0.16500 119244.000000
9681 14801 1 0.16500 119244.000000
9682 14435 1 0.16500 119244.000000
9682 14932 1 0.16500 119244.000000
9683 16171 1 0.16500 119244.000000
9683 20989 1 0.16500 119244.000000
9684 14436 1 0.16500 119244.000000
9684 14806 1 0.16500 119244.000000
9685 14437 1 0.16500 119244.000000
9685 15458 1 0.16500 119244.000000
9686 14437 1 0.16500 119244.000000
9686 15212 1 0.16500 119244.000000
9687 15465 1 0.16500 119244.000000
9687 16203 1 0.16500 119244.000000
9688 14438 1 0.16500 119244.000000
9688 16203 1 0.16500 119244.000000
9689 14439 1 0.16500 119244.000000
9689 15903 1 0.16500 119244.000000
9690 20461 1 0.16500 119244.000000
9690 23257 1 0.16500 119244.000000
9691 18649 1 0.16500 119244.000000
9691 24477 1 0.16500 119244.000000
9692 14440 1 0.16500 119244.000000
9692 15856 1 0.16500 119244.000000
9693 14441 1 0.16500 119244.000000
9693 16190 1 0.16500 119244.000000
9694 14442 1 0.16500 119244.000000
9694 14647 1 0.16500 119244.000000
9695 14442 1 0.16500 119244.000000
9695 15215 1 0.16500 119244.000000
9696 14443 1 0.16500 119244.000000
9696 16169 1 0.16500 119244.000000
9697 14443 1 0.16500 119244.000000
9697 15367 1 0.16500 119244.000000
9698 14444 1 0.16500 119244.000000
9698 14827 1 0.16500 119244.000000
9699 14445 1 0.16500 119244.000000
9699 15305 1 0.16500 119244.000000
9700 14445 1 0.16500 119244.000000
9700 15909 1 0.16500 119244.000000
9701 14445 1 0.16500 119244.000000
9701 20101 1 0.16500 119244.000000
9702 14446 1 0.16500 119244.000000
9702 14464 1 0.16500 119244.000000
9703 14446 1 0.16500 119244.000000
9703 15107 1 0.16500 119244.000000
9704 14446 1 0.16500 119244.000000
9704 15669 1 0.16500 119244.000000
9705 14447 1 0.16500 119244.000000
9705 15704 1 0.16500 119244.000000
9706 14447 1 0.16500 119244.000000
9706 15588 1 0.16500 119244.000000
9707 14603 1 0.16500 119244.000000
9707 15704 1 0.16500 119244.000000
9708 14448 1 0.16500 119244.000000
9708 15606 1 0.16500 119244.000000
9709 11572 1 0.16500 119244.000000
9709 14449 1 0.16500 119244.000000
9710 14450 1 0.16500 119244.000000
9710 15423 1 0.16500 119244.000000
9711 14450 1 0.16500 119244.000000
9711 15369 1 0.16500 119244.000000
9712 14451 1 0.16500 119244.000000
9712 14826 1 0.16500 119244.000000
9713 14451 1 0.16500 119244.000000
9713 14985 1 0.16500 119244.000000
9714 14452 1 0.16500 119244.000000
9714 15636 1 0.16500 119244.000000
9715 14452 1 0.16500 119244.000000
9715 15390 1 0.16500 119244.000000
9716 14453 1 0.16500 119244.000000
9716 16249 1 0.16500 119244.000000
9717 14453 1 0.16500 119244.000000
9717 14685 1 0.16500 119244.000000
9718 14454 1 0.16500 119244.000000
9718 14460 1 0.16500 119244.000000
9719 14455 1 0.16500 119244.000000
9719 15506 1 0.16500 119244.000000
9720 14455 1 0.16500 119244.000000
9720 14982 1 0.16500 119244.000000
9721 14455 1 0.16500 119244.000000
9721 14632 1 0.16500 119244.000000
9722 14457 1 0.16500 119244.000000
9722 14939 1 0.16500 119244.000000
9723 14457 1 0.16500 119244.000000
9723 15643 1 0.16500 119244.000000
9724 14459 1 0.16500 119244.000000
9724 15518 1 0.16500 119244.000000
9725 14460 1 0.16500 119244.000000
9725 14699 1 0.16500 119244.000000
9726 14461 1 0.16500 119244.000000
9726 15718 1 0.16500 119244.000000
9727 11719 1 0.16500 119244.000000
9727 20653 1 0.16500 119244.000000
9728 14462 1 0.16500 119244.000000
9728 15423 1 0.16500 119244.000000
9729 15050 1 0.16500 119244.000000
9729 15329 1 0.16500 119244.000000
9730 14463 1 0.16500 119244.000000
9730 15329 1 0.16500 119244.000000
9731 14465 1 0.16500 119244.000000
9731 15394 1 0.16500 119244.000000
9732 14466 1 0.16500 119244.000000
9732 15222 1 0.16500 119244.000000
9733 14466 1 0.16500 119244.000000
9733 15754 1 0.16500 119244.000000
9734 14466 1 0.16500 119244.000000
9734 18673 1 0.16500 119244.000000
9735 14466 1 0.16500 119244.000000
9735 16099 1 0.16500 119244.000000
9736 14467 1 0.16500 119244.000000
9736 14732 1 0.16500 119244.000000
9737 14467 1 0.16500 119244.000000
9737 15163 1 0.16500 119244.000000
9738 14467 1 0.16500 119244.000000
9738 15209 1 0.16500 119244.000000
9739 14468 1 0.16500 119244.000000
9739 15332 1 0.16500 119244.000000
9740 12766 1 0.16500 119244.000000
9740 21481 1 0.16500 119244.000000
9741 14470 1 0.16500 119244.000000
9741 15265 1 0.16500 119244.000000
9742 14471 1 0.16500 119244.000000
9742 15085 1 0.16500 119244.000000
9743 14471 1 0.16500 119244.000000
9743 19141 1 0.16500 119244.000000
9744 14472 1 0.16500 119244.000000
9744 24241 1 0.16500 119244.000000
9745 14472 1 0.16500 119244.000000
9745 15841 1 0.16500 119244.000000
9746 14473 1 0.16500 119244.000000
9746 15312 1 0.16500 119244.000000
9747 14473 1 0.16500 119244.000000
9747 15480 1 0.16500 119244.000000
9748 14474 1 0.16500 119244.000000
9748 16184 1 0.16500 119244.000000
9749 14475 1 0.16500 119244.000000
9749 16191 1 0.16500 119244.000000
9750 14475 1 0.16500 119244.000000
9750 24064 1 0.16500 119244.000000
9751 14476 1 0.16500 119244.000000
9751 22273 1 0.16500 119244.000000
9752 14476 1 0.16500 119244.000000
9752 15344 1 0.16500 119244.000000
9753 14476 1 0.16500 119244.000000
9753 15111 1 0.16500 119244.000000
9754 14477 1 0.16500 119244.000000
9754 14837 1 0.16500 119244.000000
9755 14478 1 0.16500 119244.000000
9755 24046 1 0.16500 119244.000000
9756 14478 1 0.16500 119244.000000
9756 24250 1 0.16500 119244.000000
9757 14482 1 0.16500 119244.000000
9757 14883 1 0.16500 119244.000000
9758 14482 1 0.16500 119244.000000
9758 14754 1 0.16500 119244.000000
9759 14594 1 0.16500 119244.000000
9759 15180 1 0.16500 119244.000000
9760 14484 1 0.16500 119244.000000
9760 14594 1 0.16500 119244.000000
9761 14485 1 0.16500 119244.000000
9761 14503 1 0.16500 119244.000000
9762 14486 1 0.16500 119244.000000
9762 16077 1 0.16500 119244.000000
9763 14486 1 0.16500 119244.000000
9763 15041 1 0.16500 119244.000000
9764 14510 1 0.16500 119244.000000
9764 17039 1 0.16500 119244.000000
9765 17039 1 0.16500 119244.000000
9765 17655 1 0.16500 119244.000000
9766 14487 1 0.16500 119244.000000
9766 24169 1 0.16500 119244.000000
9767 14488 1 0.16500 119244.000000
9767 14934 1 0.16500 119244.000000
9768 14488 1 0.16500 119244.000000
9768 15062 1 0.16500 119244.000000
9769 14489 1 0.16500 119244.000000
9769 14561 1 0.16500 119244.000000
9770 14489 1 0.16500 119244.000000
9770 15263 1 0.16500 119244.000000
9771 14490 1 0.16500 119244.000000
9771 16220 1 0.16500 119244.000000
9772 14490 1 0.16500 119244.000000
9772 15539 1 0.16500 119244.000000
9773 14491 1 0.16500 119244.000000
9773 15198 1 0.16500 119244.000000
9774 15641 1 0.16500 119244.000000
9774 24046 1 0.16500 119244.000000
9775 14492 1 0.16500 119244.000000
9775 15528 1 0.16500 119244.000000
9776 14493 1 0.16500 119244.000000
9776 16175 1 0.16500 119244.000000
9777 14259 1 0.16500 119244.000000
9777 14969 1 0.16500 119244.000000
9778 14494 1 0.16500 119244.000000
9778 15687 1 0.16500 119244.000000
9779 14494 1 0.16500 119244.000000
9779 15235 1 0.16500 119244.000000
9780 14495 1 0.16500 119244.000000
9780 15919 1 0.16500 119244.000000
9781 14496 1 0.16500 119244.000000
9781 15748 1 0.16500 119244.000000
9782 14496 1 0.16500 119244.000000
9782 16060 1 0.16500 119244.000000
9783 14497 1 0.16500 119244.000000
9783 16066 1 0.16500 119244.000000
9784 14497 1 0.16500 119244.000000
9784 14634 1 0.16500 119244.000000
9785 14497 1 0.16500 119244.000000
9785 15287 1 0.16500 119244.000000
9786 14498 1 0.16500 119244.000000
9786 15715 1 0.16500 119244.000000
9787 14499 1 0.16500 119244.000000
9787 14560 1 0.16500 119244.000000
9788 13013 1 0.16500 119244.000000
9788 14499 1 0.16500 119244.000000
9789 14500 1 0.16500 119244.000000
9789 15532 1 0.16500 119244.000000
9790 14501 1 0.16500 119244.000000
9790 15928 1 0.16500 119244.000000
9791 14501 1 0.16500 119244.000000
9791 15176 1 0.16500 119244.000000
9792 14501 1 0.16500 119244.000000
9792 20629 1 0.16500 119244.000000
9793 14503 1 0.16500 119244.000000
9793 16271 1 0.16500 119244.000000
9794 14504 1 0.16500 119244.000000
9794 15738 1 0.16500 119244.000000
9795 14504 1 0.16500 119244.000000
9795 15422 1 0.16500 119244.000000
9796 14505 1 0.16500 119244.000000
9796 14829 1 0.16500 119244.000000
9797 14505 1 0.16500 119244.000000
9797 17193 1 0.16500 119244.000000
9798 14507 1 0.16500 119244.000000
9798 15029 1 0.16500 119244.000000
9799 14507 1 0.16500 119244.000000
9799 15266 1 0.16500 119244.000000
9800 14509 1 0.16500 119244.000000
9800 14777 1 0.16500 119244.000000
9801 14509 1 0.16500 119244.000000
9801 15247 1 0.16500 119244.000000
9802 14510 1 0.16500 119244.000000
9802 14880 1 0.16500 119244.000000
9803 14510 1 0.16500 119244.000000
9803 21757 1 0.16500 119244.000000
9804 14512 1 0.16500 119244.000000
9804 19393 1 0.16500 119244.000000
9805 14514 1 0.16500 119244.000000
9805 14651 1 0.16500 119244.000000
9806 16247 1 0.16500 119244.000000
9806 24052 1 0.16500 119244.000000
9807 14515 1 0.16500 119244.000000
9807 24298 1 0.16500 119244.000000
9808 15989 1 0.16500 119244.000000
9808 21937 1 0.16500 119244.000000
9809 14516 1 0.16500 119244.000000
9809 14593 1 0.16500 119244.000000
9810 14516 1 0.16500 119244.000000
9810 15201 1 0.16500 119244.000000
9811 14517 1 0.16500 119244.000000
9811 14556 1 0.16500 119244.000000
9812 14517 1 0.16500 119244.000000
9812 16186 1 0.16500 119244.000000
9813 14518 1 0.16500 119244.000000
9813 14525 1 0.16500 119244.000000
9814 14518 1 0.16500 119244.000000
9814 16107 1 0.16500 119244.000000
9815 14518 1 0.16500 119244.000000
9815 15431 1 0.16500 119244.000000
9816 14519 1 0.16500 119244.000000
9816 14641 1 0.16500 119244.000000
9817 13306 1 0.16500 119244.000000
9817 14520 1 0.16500 119244.000000
9818 14520 1 0.16500 119244.000000
9818 15885 1 0.16500 119244.000000
9819 14521 1 0.16500 119244.000000
9819 15532 1 0.16500 119244.000000
9820 14521 1 0.16500 119244.000000
9820 15686 1 0.16500 119244.000000
9821 14523 1 0.16500 119244.000000
9821 14895 1 0.16500 119244.000000
9822 14662 1 0.16500 119244.000000
9822 24055 1 0.16500 119244.000000
9823 20497 1 0.16500 119244.000000
9823 24055 1 0.16500 119244.000000
9824 14805 1 0.16500 119244.000000
9824 22357 1 0.16500 119244.000000
9825 15941 1 0.16500 119244.000000
9825 24058 1 0.16500 119244.000000
9826 14525 1 0.16500 119244.000000
9826 15908 1 0.16500 119244.000000
9827 14526 1 0.16500 119244.000000
9827 20281 1 0.16500 119244.000000
9828 14526 1 0.16500 119244.000000
9828 24139 1 0.16500 119244.000000
9829 14527 1 0.16500 119244.000000
9829 15573 1 0.16500 119244.000000
9830 14527 1 0.16500 119244.000000
9830 14881 1 0.16500 119244.000000
9831 14528 1 0.16500 119244.000000
9831 15973 1 0.16500 119244.000000
9832 14528 1 0.16500 119244.000000
9832 15599 1 0.16500 119244.000000
9833 14528 1 0.16500 119244.000000
9833 16092 1 0.16500 119244.000000
9834 14529 1 0.16500 119244.000000
9834 15389 1 0.16500 119244.000000
9835 14530 1 0.16500 119244.000000
9835 24271 1 0.16500 119244.000000
9836 14531 1 0.16500 119244.000000
9836 14690 1 0.16500 119244.000000
9837 13583 1 0.16500 119244.000000
9837 14531 1 0.16500 119244.000000
9838 14531 1 0.16500 119244.000000
9838 15039 1 0.16500 119244.000000
9839 12789 1 0.16500 119244.000000
9839 14533 1 0.16500 119244.000000
9840 14533 1 0.16500 119244.000000
9840 15128 1 0.16500 119244.000000
9841 14534 1 0.16500 119244.000000
9841 14887 1 0.16500 119244.000000
9842 14534 1 0.16500 119244.000000
9842 14612 1 0.16500 119244.000000
9843 14536 1 0.16500 119244.000000
9843 14700 1 0.16500 119244.000000
9844 14536 1 0.16500 119244.000000
9844 24301 1 0.16500 119244.000000
9845 14538 1 0.16500 119244.000000
9845 16074 1 0.16500 119244.000000
9846 11485 1 0.16500 119244.000000
9846 14538 1 0.16500 119244.000000
9847 11316 1 0.16500 119244.000000
9847 14538 1 0.16500 119244.000000
9848 14539 1 0.16500 119244.000000
9848 14820 1 0.16500 119244.000000
9849 14540 1 0.16500 119244.000000
9849 15303 1 0.16500 119244.000000
9850 14540 1 0.16500 119244.000000
9850 16154 1 0.16500 119244.000000
9851 14541 1 0.16500 119244.000000
9851 15587 1 0.16500 119244.000000
9852 19933 1 0.16500 119244.000000
9852 24061 1 0.16500 119244.000000
9853 16177 1 0.16500 119244.000000
9853 24061 1 0.16500 119244.000000
9854 14542 1 0.16500 119244.000000
9854 16236 1 0.16500 119244.000000
9855 14544 1 0.16500 119244.000000
9855 15660 1 0.16500 119244.000000
9856 14544 1 0.16500 119244.000000
9856 14649 1 0.16500 119244.000000
9857 14545 1 0.16500 119244.000000
9857 15940 1 0.16500 119244.000000
9858 14546 1 0.16500 119244.000000
9858 21877 1 0.16500 119244.000000
9859 14546 1 0.16500 119244.000000
9859 16899 1 0.16500 119244.000000
9860 14547 1 0.16500 119244.000000
9860 15392 1 0.16500 119244.000000
9861 14547 1 0.16500 119244.000000
9861 15208 1 0.16500 119244.000000
9862 14548 1 0.16500 119244.000000
9862 15882 1 0.16500 119244.000000
9863 14548 1 0.16500 119244.000000
9863 15886 1 0.16500 119244.000000
9864 14549 1 0.16500 119244.000000
9864 14711 1 0.16500 119244.000000
9865 14550 1 0.16500 119244.000000
9865 14768 1 0.16500 119244.000000
9866 14550 1 0.16500 119244.000000
9866 15448 1 0.16500 119244.000000
9867 14551 1 0.16500 119244.000000
9867 15194 1 0.16500 119244.000000
9868 14551 1 0.16500 119244.000000
9868 16131 1 0.16500 119244.000000
9869 14551 1 0.16500 119244.000000
9869 15313 1 0.16500 119244.000000
9870 14552 1 0.16500 119244.000000
9870 14738 1 0.16500 119244.000000
9871 14553 1 0.16500 119244.000000
9871 15683 1 0.16500 119244.000000
9872 14553 1 0.16500 119244.000000
9872 15846 1 0.16500 119244.000000
9873 14554 1 0.16500 119244.000000
9873 15121 1 0.16500 119244.000000
9874 14554 1 0.16500 119244.000000
9874 14709 1 0.16500 119244.000000
9875 14555 1 0.16500 119244.000000
9875 16134 1 0.16500 119244.000000
9876 14555 1 0.16500 119244.000000
9876 15475 1 0.16500 119244.000000
9877 14556 1 0.16500 119244.000000
9877 16661 1 0.16500 119244.000000
9878 14556 1 0.16500 119244.000000
9878 15221 1 0.16500 119244.000000
9879 14557 1 0.16500 119244.000000
9879 15248 1 0.16500 119244.000000
9880 14558 1 0.16500 119244.000000
9880 16161 1 0.16500 119244.000000
9881 14558 1 0.16500 119244.000000
9881 15264 1 0.16500 119244.000000
9882 14559 1 0.16500 119244.000000
9882 15292 1 0.16500 119244.000000
9883 14559 1 0.16500 119244.000000
9883 15196 1 0.16500 119244.000000
9884 14560 1 0.16500 119244.000000
9884 14706 1 0.16500 119244.000000
9885 14563 1 0.16500 119244.000000
9885 16237 1 0.16500 119244.000000
9886 14566 1 0.16500 119244.000000
9886 16234 1 0.16500 119244.000000
9887 12827 1 0.16500 119244.000000
9887 15102 1 0.16500 119244.000000
9888 14568 1 0.16500 119244.000000
9888 15813 1 0.16500 119244.000000
9889 12827 1 0.16500 119244.000000
9889 14568 1 0.16500 119244.000000
9890 14569 1 0.16500 119244.000000
9890 15903 1 0.16500 119244.000000
9891 14569 1 0.16500 119244.000000
9891 16046 1 0.16500 119244.000000
9892 12635 1 0.16500 119244.000000
9892 14569 1 0.16500 119244.000000
9893 14570 1 0.16500 119244.000000
9893 14819 1 0.16500 119244.000000
9894 14570 1 0.16500 119244.000000
9894 15683 1 0.16500 119244.000000
9895 14571 1 0.16500 119244.000000
9895 15990 1 0.16500 119244.000000
9896 14572 1 0.16500 119244.000000
9896 14945 1 0.16500 119244.000000
9897 14573 1 0.16500 119244.000000
9897 16235 1 0.16500 119244.000000
9898 14573 1 0.16500 119244.000000
9898 15050 1 0.16500 119244.000000
9899 14574 1 0.16500 119244.000000
9899 23089 1 0.16500 119244.000000
9900 14576 1 0.16500 119244.000000
9900 15135 1 0.16500 119244.000000
9901 14576 1 0.16500 119244.000000
9901 15580 1 0.16500 119244.000000
9902 14576 1 0.16500 119244.000000
9902 14598 1 0.16500 119244.000000
9903 19021 1 0.16500 119244.000000
9903 19105 1 0.16500 119244.000000
9904 19021 1 0.16500 119244.000000
9904 20041 1 0.16500 119244.000000
9905 15502 1 0.16500 119244.000000
9905 19021 1 0.16500 119244.000000
9906 14577 1 0.16500 119244.000000
9906 14982 1 0.16500 119244.000000
9907 14577 1 0.16500 119244.000000
9907 15875 1 0.16500 119244.000000
9908 14578 1 0.16500 119244.000000
9908 15035 1 0.16500 119244.000000
9909 14578 1 0.16500 119244.000000
9909 15148 1 0.16500 119244.000000
9910 14867 1 0.16500 119244.000000
9910 24064 1 0.16500 119244.000000
9911 14580 1 0.16500 119244.000000
9911 15509 1 0.16500 119244.000000
9912 14581 1 0.16500 119244.000000
9912 16054 1 0.16500 119244.000000
9913 14582 1 0.16500 119244.000000
9913 15729 1 0.16500 119244.000000
9914 14585 1 0.16500 119244.000000
9914 15411 1 0.16500 119244.000000
9915 14585 1 0.16500 119244.000000
9915 14771 1 0.16500 119244.000000
9916 14586 1 0.16500 119244.000000
9916 14761 1 0.16500 119244.000000
9917 14587 1 0.16500 119244.000000
9917 15906 1 0.16500 119244.000000
9918 14587 1 0.16500 119244.000000
9918 14798 1 0.16500 119244.000000
9919 14588 1 0.16500 119244.000000
9919 15106 1 0.16500 119244.000000
9920 14588 1 0.16500 119244.000000
9920 15694 1 0.16500 119244.000000
9921 14589 1 0.16500 119244.000000
9921 15696 1 0.16500 119244.000000
9922 13964 1 0.16500 119244.000000
9922 14590 1 0.16500 119244.000000
9923 12662 1 0.16500 119244.000000
9923 16238 1 0.16500 119244.000000
9924 14591 1 0.16500 119244.000000
9924 16144 1 0.16500 119244.000000
9925 14591 1 0.16500 119244.000000
9925 14816 1 0.16500 119244.000000
9926 14592 1 0.16500 119244.000000
9926 15221 1 0.16500 119244.000000
9927 21877 1 0.16500 119244.000000
9927 24220 1 0.16500 119244.000000
9928 14593 1 0.16500 119244.000000
9928 15825 1 0.16500 119244.000000
9929 14595 1 0.16500 119244.000000
9929 15195 1 0.16500 119244.000000
9930 15748 1 0.16500 119244.000000
9930 22045 1 0.16500 119244.000000
9931 14596 1 0.16500 119244.000000
9931 15930 1 0.16500 119244.000000
9932 14596 1 0.16500 119244.000000
9932 15239 1 0.16500 119244.000000
9933 14597 1 0.16500 119244.000000
9933 15812 1 0.16500 119244.000000
9934 14598 1 0.16500 119244.000000
9934 14903 1 0.16500 119244.000000
9935 14599 1 0.16500 119244.000000
9935 14649 1 0.16500 119244.000000
9936 14600 1 0.16500 119244.000000
9936 15355 1 0.16500 119244.000000
9937 14600 1 0.16500 119244.000000
9937 15257 1 0.16500 119244.000000
9938 13303 1 0.16500 119244.000000
9938 14601 1 0.16500 119244.000000
9939 12201 1 0.16500 119244.000000
9939 14602 1 0.16500 119244.000000
9940 13897 1 0.16500 119244.000000
9940 14906 1 0.16500 119244.000000
9941 14603 1 0.16500 119244.000000
9941 15860 1 0.16500 119244.000000
9942 14603 1 0.16500 119244.000000
9942 14687 1 0.16500 119244.000000
9943 14605 1 0.16500 119244.000000
9943 14898 1 0.16500 119244.000000
9944 14606 1 0.16500 119244.000000
9944 15365 1 0.16500 119244.000000
9945 14607 1 0.16500 119244.000000
9945 15699 1 0.16500 119244.000000
9946 14607 1 0.16500 119244.000000
9946 15030 1 0.16500 119244.000000
9947 14608 1 0.16500 119244.000000
9947 15565 1 0.16500 119244.000000
9948 14608 1 0.16500 119244.000000
9948 15054 1 0.16500 119244.000000
9949 15351 1 0.16500 119244.000000
9949 24067 1 0.16500 119244.000000
9950 19489 1 0.16500 119244.000000
9950 24067 1 0.16500 119244.000000
9951 14609 1 0.16500 119244.000000
9951 15454 1 0.16500 119244.000000
9952 14609 1 0.16500 119244.000000
9952 15363 1 0.16500 119244.000000
9953 14609 1 0.16500 119244.000000
9953 15350 1 0.16500 119244.000000
9954 14609 1 0.16500 119244.000000
9954 15446 1 0.16500 119244.000000
9955 11457 1 0.16500 119244.000000
9955 15200 1 0.16500 119244.000000
9956 14612 1 0.16500 119244.000000
9956 14693 1 0.16500 119244.000000
9957 14613 1 0.16500 119244.000000
9957 15545 1 0.16500 119244.000000
9958 14614 1 0.16500 119244.000000
9958 15513 1 0.16500 119244.000000
9959 14615 1 0.16500 119244.000000
9959 15939 1 0.16500 119244.000000
9960 14615 1 0.16500 119244.000000
9960 16027 1 0.16500 119244.000000
9961 14616 1 0.16500 119244.000000
9961 15412 1 0.16500 119244.000000
9962 14617 1 0.16500 119244.000000
9962 15921 1 0.16500 119244.000000
9963 14617 1 0.16500 119244.000000
9963 14662 1 0.16500 119244.000000
9964 14618 1 0.16500 119244.000000
9964 15315 1 0.16500 119244.000000
9965 21349 1 0.16500 119244.000000
9965 24070 1 0.16500 119244.000000
9966 15995 1 0.16500 119244.000000
9966 24070 1 0.16500 119244.000000
9967 14619 1 0.16500 119244.000000
9967 14833 1 0.16500 119244.000000
9968 14620 1 0.16500 119244.000000
9968 14909 1 0.16500 119244.000000
9969 14395 1 0.16500 119244.000000
9969 14620 1 0.16500 119244.000000
9970 14621 1 0.16500 119244.000000
9970 15138 1 0.16500 119244.000000
9971 14623 1 0.16500 119244.000000
9971 19321 1 0.16500 119244.000000
9972 14623 1 0.16500 119244.000000
9972 14907 1 0.16500 119244.000000
9973 14624 1 0.16500 119244.000000
9973 15400 1 0.16500 119244.000000
9974 13529 1 0.16500 119244.000000
9974 14625 1 0.16500 119244.000000
9975 14625 1 0.16500 119244.000000
9975 14946 1 0.16500 119244.000000
9976 14626 1 0.16500 119244.000000
9976 15614 1 0.16500 119244.000000
9977 14627 1 0.16500 119244.000000
9977 15475 1 0.16500 119244.000000
9978 16016 1 0.16500 119244.000000
9978 20161 1 0.16500 119244.000000
9979 13454 1 0.16500 119244.000000
9979 14629 1 0.16500 119244.000000
9980 14629 1 0.16500 119244.000000
9980 14790 1 0.16500 119244.000000
9981 13047 1 0.16500 119244.000000
9981 14730 1 0.16500 119244.000000
9982 14631 1 0.16500 119244.000000
9982 15929 1 0.16500 119244.000000
9983 14632 1 0.16500 119244.000000
9983 15067 1 0.16500 119244.000000
9984 14633 1 0.16500 119244.000000
9984 15402 1 0.16500 119244.000000
9985 14633 1 0.16500 119244.000000
9985 15591 1 0.16500 119244.000000
9986 14634 1 0.16500 119244.000000
9986 16211 1 0.16500 119244.000000
9987 14636 1 0.16500 119244.000000
9987 15349 1 0.16500 119244.000000
9988 14637 1 0.16500 119244.000000
9988 15080 1 0.16500 119244.000000
9989 14637 1 0.16500 119244.000000
9989 15555 1 0.16500 119244.000000
9990 16731 1 0.16500 119244.000000
9990 19957 1 0.16500 119244.000000
9991 14638 1 0.16500 119244.000000
9991 23377 1 0.16500 119244.000000
9992 14638 1 0.16500 119244.000000
9992 19297 1 0.16500 119244.000000
9993 22153 1 0.16500 119244.000000
9993 24184 1 0.16500 119244.000000
9994 15175 1 0.16500 119244.000000
9994 15515 1 0.16500 119244.000000
9995 15515 1 0.16500 119244.000000
9995 22153 1 0.16500 119244.000000
9996 14639 1 0.16500 119244.000000
9996 15708 1 0.16500 119244.000000
9997 14642 1 0.16500 119244.000000
9997 15274 1 0.16500 119244.000000
9998 14642 1 0.16500 119244.000000
9998 15621 1 0.16500 119244.000000
9999 12581 1 0.16500 119244.000000
9999 14643 1 0.16500 119244.000000
10000 14643 1 0.16500 119244.000000
10000 14727 1 0.16500 119244.000000
10001 14643 1 0.16500 119244.000000
10001 15552 1 0.16500 119244.000000
10002 14645 1 0.16500 119244.000000
10002 15211 1 0.16500 119244.000000
10003 14645 1 0.16500 119244.000000
10003 15323 1 0.16500 119244.000000
10004 14645 1 0.16500 119244.000000
10004 16007 1 0.16500 119244.000000
10005 14646 1 0.16500 119244.000000
10005 15908 1 0.16500 119244.000000
10006 14646 1 0.16500 119244.000000
10006 15058 1 0.16500 119244.000000
10007 14647 1 0.16500 119244.000000
10007 16149 1 0.16500 119244.000000
10008 14648 1 0.16500 119244.000000
10008 15158 1 0.16500 119244.000000
10009 14649 1 0.16500 119244.000000
10009 15109 1 0.16500 119244.000000
10010 14650 1 0.16500 119244.000000
10010 14735 1 0.16500 119244.000000
10011 14650 1 0.16500 119244.000000
10011 16168 1 0.16500 119244.000000
10012 24076 1 0.16500 119244.000000
10012 24097 1 0.16500 119244.000000
10013 14652 1 0.16500 119244.000000
10013 15615 1 0.16500 119244.000000
10014 14652 1 0.16500 119244.000000
10014 15192 1 0.16500 119244.000000
10015 14653 1 0.16500 119244.000000
10015 14957 1 0.16500 119244.000000
10016 14654 1 0.16500 119244.000000
10016 15716 1 0.16500 119244.000000
10017 14654 1 0.16500 119244.000000
10017 15914 1 0.16500 119244.000000
10018 14655 1 0.16500 119244.000000
10018 15699 1 0.16500 119244.000000
10019 14655 1 0.16500 119244.000000
10019 15219 1 0.16500 119244.000000
10020 14655 1 0.16500 119244.000000
10020 15649 1 0.16500 119244.000000
10021 14747 1 0.16500 119244.000000
10021 24079 1 0.16500 119244.000000
10022 12969 1 0.16500 119244.000000
10022 14656 1 0.16500 119244.000000
10023 14656 1 0.16500 119244.000000
10023 16016 1 0.16500 119244.000000
10024 12969 1 0.16500 119244.000000
10024 16167 1 0.16500 119244.000000
10025 14657 1 0.16500 119244.000000
10025 15570 1 0.16500 119244.000000
10026 14658 1 0.16500 119244.000000
10026 15933 1 0.16500 119244.000000
10027 14659 1 0.16500 119244.000000
10027 14947 1 0.16500 119244.000000
10028 13771 1 0.16500 119244.000000
10028 14659 1 0.16500 119244.000000
10029 14661 1 0.16500 119244.000000
10029 15223 1 0.16500 119244.000000
10030 14663 1 0.16500 119244.000000
10030 19693 1 0.16500 119244.000000
10031 14664 1 0.16500 119244.000000
10031 14867 1 0.16500 119244.000000
10032 13166 1 0.16500 119244.000000
10032 15091 1 0.16500 119244.000000
10033 14665 1 0.16500 119244.000000
10033 17711 1 0.16500 119244.000000
10034 20089 1 0.16500 119244.000000
10034 21853 1 0.16500 119244.000000
10035 15190 1 0.16500 119244.000000
10035 20089 1 0.16500 119244.000000
10036 19321 1 0.16500 119244.000000
10036 20089 1 0.16500 119244.000000
10037 14668 1 0.16500 119244.000000
10037 16253 1 0.16500 119244.000000
10038 12336 1 0.16500 119244.000000
10038 14668 1 0.16500 119244.000000
10039 14669 1 0.16500 119244.000000
10039 16117 1 0.16500 119244.000000
10040 14670 1 0.16500 119244.000000
10040 14850 1 0.16500 119244.000000
10041 14671 1 0.16500 119244.000000
10041 15872 1 0.16500 119244.000000
10042 14672 1 0.16500 119244.000000
10042 15567 1 0.16500 119244.000000
10043 14672 1 0.16500 119244.000000
10043 16017 1 0.16500 119244.000000
10044 14674 1 0.16500 119244.000000
10044 16060 1 0.16500 119244.000000
10045 14674 1 0.16500 119244.000000
10045 15593 1 0.16500 119244.000000
10046 19093 1 0.16500 119244.000000
10046 21109 1 0.16500 119244.000000
10047 19093 1 0.16500 119244.000000
10047 20593 1 0.16500 119244.000000
10048 14675 1 0.16500 119244.000000
10048 14859 1 0.16500 119244.000000
10049 14676 1 0.16500 119244.000000
10049 19801 1 0.16500 119244.000000
10050 14676 1 0.16500 119244.000000
10050 15308 1 0.16500 119244.000000
10051 15076 1 0.16500 119244.000000
10051 20629 1 0.16500 119244.000000
10052 12875 1 0.16500 119244.000000
10052 16186 1 0.16500 119244.000000
10053 14678 1 0.16500 119244.000000
10053 17389 1 0.16500 119244.000000
10054 14679 1 0.16500 119244.000000
10054 14841 1 0.16500 119244.000000
10055 12859 1 0.16500 119244.000000
10055 14780 1 0.16500 119244.000000
10056 14681 1 0.16500 119244.000000
10056 16197 1 0.16500 119244.000000
10057 14682 1 0.16500 119244.000000
10057 15931 1 0.16500 119244.000000
10058 14682 1 0.16500 119244.000000
10058 15604 1 0.16500 119244.000000
10059 14684 1 0.16500 119244.000000
10059 16259 1 0.16500 119244.000000
10060 14684 1 0.16500 119244.000000
10060 15490 1 0.16500 119244.000000
10061 14684 1 0.16500 119244.000000
10061 15780 1 0.16500 119244.000000
10062 15205 1 0.16500 119244.000000
10062 16103 1 0.16500 119244.000000
10063 13658 1 0.16500 119244.000000
10063 21649 1 0.16500 119244.000000
10064 14686 1 0.16500 119244.000000
10064 15796 1 0.16500 119244.000000
10065 14688 1 0.16500 119244.000000
10065 16050 1 0.16500 119244.000000
10066 14688 1 0.16500 119244.000000
10066 15457 1 0.16500 119244.000000
10067 14689 1 0.16500 119244.000000
10067 15700 1 0.16500 119244.000000
10068 15137 1 0.16500 119244.000000
10068 24082 1 0.16500 119244.000000
10069 16745 1 0.16500 119244.000000
10069 24082 1 0.16500 119244.000000
10070 14693 1 0.16500 119244.000000
10070 15821 1 0.16500 119244.000000
10071 14694 1 0.16500 119244.000000
10071 14773 1 0.16500 119244.000000
10072 14695 1 0.16500 119244.000000
10072 15023 1 0.16500 119244.000000
10073 14695 1 0.16500 119244.000000
10073 15869 1 0.16500 119244.000000
10074 14696 1 0.16500 119244.000000
10074 15624 1 0.16500 119244.000000
10075 12767 1 0.16500 119244.000000
10075 16000 1 0.16500 119244.000000
10076 14697 1 0.16500 119244.000000
10076 20965 1 0.16500 119244.000000
10077 14698 1 0.16500 119244.000000
10077 16015 1 0.16500 119244.000000
10078 14698 1 0.16500 119244.000000
10078 16064 1 0.16500 119244.000000
10079 14698 1 0.16500 119244.000000
10079 16098 1 0.16500 119244.000000
10080 21025 1 0.16500 119244.000000
10080 24214 1 0.16500 119244.000000
10081 15198 1 0.16500 119244.000000
10081 23305 1 0.16500 119244.000000
10082 14257 1 0.16500 119244.000000
10082 17473 1 0.16500 119244.000000
10083 22813 1 0.16500 119244.000000
10083 24298 1 0.16500 119244.000000
10084 15603 1 0.16500 119244.000000
10084 23821 1 0.16500 119244.000000
10085 15820 1 0.16500 119244.000000
10085 24085 1 0.16500 119244.000000
10086 20449 1 0.16500 119244.000000
10086 24085 1 0.16500 119244.000000
10087 14703 1 0.16500 119244.000000
10087 21901 1 0.16500 119244.000000
10088 14704 1 0.16500 119244.000000
10088 14837 1 0.16500 119244.000000
10089 14705 1 0.16500 119244.000000
10089 15504 1 0.16500 119244.000000
10090 14706 1 0.16500 119244.000000
10090 14940 1 0.16500 119244.000000
10091 14708 1 0.16500 119244.000000
10091 15762 1 0.16500 119244.000000
10092 11534 1 0.16500 119244.000000
10092 14708 1 0.16500 119244.000000
10093 14709 1 0.16500 119244.000000
10093 16164 1 0.16500 119244.000000
10094 14709 1 0.16500 119244.000000
10094 14748 1 0.16500 119244.000000
10095 14710 1 0.16500 119244.000000
10095 15879 1 0.16500 119244.000000
10096 14710 1 0.16500 119244.000000
10096 15904 1 0.16500 119244.000000
10097 14711 1 0.16500 119244.000000
10097 14920 1 0.16500 119244.000000
10098 14716 1 0.16500 119244.000000
10098 16002 1 0.16500 119244.000000
10099 14716 1 0.16500 119244.000000
10099 15360 1 0.16500 119244.000000
10100 14716 1 0.16500 119244.000000
10100 15404 1 0.16500 119244.000000
10101 14717 1 0.16500 119244.000000
10101 16170 1 0.16500 119244.000000
10102 14718 1 0.16500 119244.000000
10102 16127 1 0.16500 119244.000000
10103 14718 1 0.16500 119244.000000
10103 16086 1 0.16500 119244.000000
10104 18445 1 0.16500 119244.000000
10104 24091 1 0.16500 119244.000000
10105 15393 1 0.16500 119244.000000
10105 22957 1 0.16500 119244.000000
10106 14721 1 0.16500 119244.000000
10106 16152 1 0.16500 119244.000000
10107 14722 1 0.16500 119244.000000
10107 16124 1 0.16500 119244.000000
10108 14723 1 0.16500 119244.000000
10108 15333 1 0.16500 119244.000000
10109 14723 1 0.16500 119244.000000
10109 15699 1 0.16500 119244.000000
10110 14724 1 0.16500 119244.000000
10110 14743 1 0.16500 119244.000000
10111 14724 1 0.16500 119244.000000
10111 15311 1 0.16500 119244.000000
10112 14725 1 0.16500 119244.000000
10112 14823 1 0.16500 119244.000000
10113 14725 1 0.16500 119244.000000
10113 15636 1 0.16500 119244.000000
10114 14726 1 0.16500 119244.000000
10114 14745 1 0.16500 119244.000000
10115 14727 1 0.16500 119244.000000
10115 16160 1 0.16500 119244.000000
10116 14727 1 0.16500 119244.000000
10116 14776 1 0.16500 119244.000000
10117 14728 1 0.16500 119244.000000
10117 16013 1 0.16500 119244.000000
10118 14728 1 0.16500 119244.000000
10118 14744 1 0.16500 119244.000000
10119 13745 1 0.16500 119244.000000
10119 15840 1 0.16500 119244.000000
10120 14730 1 0.16500 119244.000000
10120 14769 1 0.16500 119244.000000
10121 15167 1 0.16500 119244.000000
10121 21397 1 0.16500 119244.000000
10122 14732 1 0.16500 119244.000000
10122 15285 1 0.16500 119244.000000
10123 14733 1 0.16500 119244.000000
10123 15227 1 0.16500 119244.000000
10124 20329 1 0.16500 119244.000000
10124 23401 1 0.16500 119244.000000
10125 14735 1 0.16500 119244.000000
10125 14977 1 0.16500 119244.000000
10126 14735 1 0.16500 119244.000000
10126 15288 1 0.16500 119244.000000
10127 14736 1 0.16500 119244.000000
10127 16079 1 0.16500 119244.000000
10128 14737 1 0.16500 119244.000000
10128 15645 1 0.16500 119244.000000
10129 14739 1 0.16500 119244.000000
10129 14776 1 0.16500 119244.000000
10130 14739 1 0.16500 119244.000000
10130 15643 1 0.16500 119244.000000
10131 14740 1 0.16500 119244.000000
10131 15170 1 0.16500 119244.000000
10132 14741 1 0.16500 119244.000000
10132 15289 1 0.16500 119244.000000
10133 14741 1 0.16500 119244.000000
10133 14876 1 0.16500 119244.000000
10134 13869 1 0.16500 119244.000000
10134 14741 1 0.16500 119244.000000
10135 14741 1 0.16500 119244.000000
10135 14892 1 0.16500 119244.000000
10136 14742 1 0.16500 119244.000000
10136 15737 1 0.16500 119244.000000
10137 14743 1 0.16500 119244.000000
10137 14864 1 0.16500 119244.000000
10138 14744 1 0.16500 119244.000000
10138 15538 1 0.16500 119244.000000
10139 14746 1 0.16500 119244.000000
10139 20965 1 0.16500 119244.000000
10140 16689 1 0.16500 119244.000000
10140 24094 1 0.16500 119244.000000
10141 15621 1 0.16500 119244.000000
10141 22717 1 0.16500 119244.000000
10142 14749 1 0.16500 119244.000000
10142 15166 1 0.16500 119244.000000
10143 15786 1 0.16500 119244.000000
10143 24457 1 0.16500 119244.000000
10144 15776 1 0.16500 119244.000000
10144 22105 1 0.16500 119244.000000
10145 14750 1 0.16500 119244.000000
10145 15464 1 0.16500 119244.000000
10146 14750 1 0.16500 119244.000000
10146 19201 1 0.16500 119244.000000
10147 14750 1 0.16500 119244.000000
10147 15160 1 0.16500 119244.000000
10148 20149 1 0.16500 119244.000000
10148 23533 1 0.16500 119244.000000
10149 20149 1 0.16500 119244.000000
10149 21757 1 0.16500 119244.000000
10150 15047 1 0.16500 119244.000000
10150 15545 1 0.16500 119244.000000
10151 14752 1 0.16500 119244.000000
10151 15545 1 0.16500 119244.000000
10152 14753 1 0.16500 119244.000000
10152 16227 1 0.16500 119244.000000
10153 14755 1 0.16500 119244.000000
10153 14962 1 0.16500 119244.000000
10154 14755 1 0.16500 119244.000000
10154 15313 1 0.16500 119244.000000
10155 14756 1 0.16500 119244.000000
10155 15218 1 0.16500 119244.000000
10156 12541 1 0.16500 119244.000000
10156 16139 1 0.16500 119244.000000
10157 14757 1 0.16500 119244.000000
10157 16249 1 0.16500 119244.000000
10158 14758 1 0.16500 119244.000000
10158 19105 1 0.16500 119244.000000
10159 14759 1 0.16500 119244.000000
10159 20449 1 0.16500 119244.000000
10160 14760 1 0.16500 119244.000000
10160 15875 1 0.16500 119244.000000
10161 14762 1 0.16500 119244.000000
10161 15402 1 0.16500 119244.000000
10162 14762 1 0.16500 119244.000000
10162 14901 1 0.16500 119244.000000
10163 14763 1 0.16500 119244.000000
10163 15745 1 0.16500 119244.000000
10164 14763 1 0.16500 119244.000000
10164 14927 1 0.16500 119244.000000
10165 17557 1 0.16500 119244.000000
10165 24097 1 0.16500 119244.000000
10166 14765 1 0.16500 119244.000000
10166 15055 1 0.16500 119244.000000
10167 14766 1 0.16500 119244.000000
10167 14973 1 0.16500 119244.000000
10168 14767 1 0.16500 119244.000000
10168 16241 1 0.16500 119244.000000
10169 14767 1 0.16500 119244.000000
10169 15742 1 0.16500 119244.000000
10170 14768 1 0.16500 119244.000000
10170 15936 1 0.16500 119244.000000
10171 14769 1 0.16500 119244.000000
10171 15076 1 0.16500 119244.000000
10172 14770 1 0.16500 119244.000000
10172 16031 1 0.16500 119244.000000
10173 14770 1 0.16500 119244.000000
10173 15117 1 0.16500 119244.000000
10174 14771 1 0.16500 119244.000000
10174 16245 1 0.16500 119244.000000
10175 14772 1 0.16500 119244.000000
10175 15234 1 0.16500 119244.000000
10176 14772 1 0.16500 119244.000000
10176 14869 1 0.16500 119244.000000
10177 14773 1 0.16500 119244.000000
10177 15773 1 0.16500 119244.000000
10178 14774 1 0.16500 119244.000000
10178 15454 1 0.16500 119244.000000
10179 14774 1 0.16500 119244.000000
10179 15234 1 0.16500 119244.000000
10180 14774 1 0.16500 119244.000000
10180 16242 1 0.16500 119244.000000
10181 14776 1 0.16500 119244.000000
10181 14939 1 0.16500 119244.000000
10182 14776 1 0.16500 119244.000000
10182 15781 1 0.16500 119244.000000
10183 14777 1 0.16500 119244.000000
10183 16241 1 0.16500 119244.000000
10184 14777 1 0.16500 119244.000000
10184 15489 1 0.16500 119244.000000
10185 15800 1 0.16500 119244.000000
10185 24100 1 0.16500 119244.000000
10186 14778 1 0.16500 119244.000000
10186 15227 1 0.16500 119244.000000
10187 14779 1 0.16500 119244.000000
10187 15731 1 0.16500 119244.000000
10188 14779 1 0.16500 119244.000000
10188 15159 1 0.16500 119244.000000
10189 14780 1 0.16500 119244.000000
10189 15389 1 0.16500 119244.000000
10190 14781 1 0.16500 119244.000000
10190 15852 1 0.16500 119244.000000
10191 14781 1 0.16500 119244.000000
10191 15945 1 0.16500 119244.000000
10192 14782 1 0.16500 119244.000000
10192 15449 1 0.16500 119244.000000
10193 13294 1 0.16500 119244.000000
10193 14782 1 0.16500 119244.000000
10194 14783 1 0.16500 119244.000000
10194 15900 1 0.16500 119244.000000
10195 15900 1 0.16500 119244.000000
10195 23722 1 0.16500 119244.000000
10196 14784 1 0.16500 119244.000000
10196 16256 1 0.16500 119244.000000
10197 14784 1 0.16500 119244.000000
10197 14804 1 0.16500 119244.000000
10198 14785 1 0.16500 119244.000000
10198 15954 1 0.16500 119244.000000
10199 15795 1 0.16500 119244.000000
10199 21097 1 0.16500 119244.000000
10200 14786 1 0.16500 119244.000000
10200 15394 1 0.16500 119244.000000
10201 14787 1 0.16500 119244.000000
10201 14929 1 0.16500 119244.000000
10202 14787 1 0.16500 119244.000000
10202 16272 1 0.16500 119244.000000
10203 14788 1 0.16500 119244.000000
10203 14944 1 0.16500 119244.000000
10204 14789 1 0.16500 119244.000000
10204 15713 1 0.16500 119244.000000
10205 14790 1 0.16500 119244.000000
10205 15651 1 0.16500 119244.000000
10206 11843 1 0.16500 119244.000000
10206 14792 1 0.16500 119244.000000
10207 14792 1 0.16500 119244.000000
10207 15047 1 0.16500 119244.000000
10208 14792 1 0.16500 119244.000000
10208 15759 1 0.16500 119244.000000
10209 14793 1 0.16500 119244.000000
10209 15472 1 0.16500 119244.000000
10210 14793 1 0.16500 119244.000000
10210 15821 1 0.16500 119244.000000
10211 14794 1 0.16500 119244.000000
10211 15536 1 0.16500 119244.000000
10212 14794 1 0.16500 119244.000000
10212 15477 1 0.16500 119244.000000
10213 24106 1 0.16500 119244.000000
10213 24214 1 0.16500 119244.000000
10214 14795 1 0.16500 119244.000000
10214 14953 1 0.16500 119244.000000
10215 14795 1 0.16500 119244.000000
10215 16141 1 0.16500 119244.000000
10216 14796 1 0.16500 119244.000000
10216 15913 1 0.16500 119244.000000
10217 14797 1 0.16500 119244.000000
10217 15604 1 0.16500 119244.000000
10218 14798 1 0.16500 119244.000000
10218 15279 1 0.16500 119244.000000
10219 14798 1 0.16500 119244.000000
10219 15613 1 0.16500 119244.000000
10220 14799 1 0.16500 119244.000000
10220 15024 1 0.16500 119244.000000
10221 14799 1 0.16500 119244.000000
10221 22909 1 0.16500 119244.000000
10222 14799 1 0.16500 119244.000000
10222 21673 1 0.16500 119244.000000
10223 14800 1 0.16500 119244.000000
10223 15633 1 0.16500 119244.000000
10224 14801 1 0.16500 119244.000000
10224 15355 1 0.16500 119244.000000
10225 14802 1 0.16500 119244.000000
10225 16053 1 0.16500 119244.000000
10226 14802 1 0.16500 119244.000000
10226 16252 1 0.16500 119244.000000
10227 14802 1 0.16500 119244.000000
10227 15851 1 0.16500 119244.000000
10228 14803 1 0.16500 119244.000000
10228 15918 1 0.16500 119244.000000
10229 14804 1 0.16500 119244.000000
10229 16274 1 0.16500 119244.000000
10230 15832 1 0.16500 119244.000000
10230 24109 1 0.16500 119244.000000
10231 14805 1 0.16500 119244.000000
10231 15405 1 0.16500 119244.000000
10232 14806 1 0.16500 119244.000000
10232 14963 1 0.16500 119244.000000
10233 14806 1 0.16500 119244.000000
10233 15105 1 0.16500 119244.000000
10234 14807 1 0.16500 119244.000000
10234 16162 1 0.16500 119244.000000
10235 14807 1 0.16500 119244.000000
10235 15981 1 0.16500 119244.000000
10236 14808 1 0.16500 119244.000000
10236 15792 1 0.16500 119244.000000
10237 14808 1 0.16500 119244.000000
10237 15365 1 0.16500 119244.000000
10238 14810 1 0.16500 119244.000000
10238 23881 1 0.16500 119244.000000
10239 14810 1 0.16500 119244.000000
10239 23620 1 0.16500 119244.000000
10240 14811 1 0.16500 119244.000000
10240 15503 1 0.16500 119244.000000
10241 14811 1 0.16500 119244.000000
10241 15483 1 0.16500 119244.000000
10242 14812 1 0.16500 119244.000000
10242 15623 1 0.16500 119244.000000
10243 14812 1 0.16500 119244.000000
10243 15095 1 0.16500 119244.000000
10244 14813 1 0.16500 119244.000000
10244 16275 1 0.16500 119244.000000
10245 14815 1 0.16500 119244.000000
10245 16163 1 0.16500 119244.000000
10246 14816 1 0.16500 119244.000000
10246 15240 1 0.16500 119244.000000
10247 14817 1 0.16500 119244.000000
10247 15293 1 0.16500 119244.000000
10248 13388 1 0.16500 119244.000000
10248 14818 1 0.16500 119244.000000
10249 14818 1 0.16500 119244.000000
10249 15957 1 0.16500 119244.000000
10250 14819 1 0.16500 119244.000000
10250 14959 1 0.16500 119244.000000
10251 14820 1 0.16500 119244.000000
10251 15146 1 0.16500 119244.000000
10252 14820 1 0.16500 119244.000000
10252 15095 1 0.16500 119244.000000
10253 14821 1 0.16500 119244.000000
10253 14888 1 0.16500 119244.000000
10254 14821 1 0.16500 119244.000000
10254 14943 1 0.16500 119244.000000
10255 14823 1 0.16500 119244.000000
10255 16228 1 0.16500 119244.000000
10256 14824 1 0.16500 119244.000000
10256 16254 1 0.16500 119244.000000
10257 14824 1 0.16500 119244.000000
10257 15147 1 0.16500 119244.000000
10258 14826 1 0.16500 119244.000000
10258 16240 1 0.16500 119244.000000
10259 14451 1 0.16500 119244.000000
10259 15398 1 0.16500 119244.000000
10260 14828 1 0.16500 119244.000000
10260 15751 1 0.16500 119244.000000
10261 14828 1 0.16500 119244.000000
10261 16091 1 0.16500 119244.000000
10262 14829 1 0.16500 119244.000000
10262 15119 1 0.16500 119244.000000
10263 14830 1 0.16500 119244.000000
10263 14949 1 0.16500 119244.000000
10264 14830 1 0.16500 119244.000000
10264 16026 1 0.16500 119244.000000
10265 14831 1 0.16500 119244.000000
10265 14904 1 0.16500 119244.000000
10266 14542 1 0.16500 119244.000000
10266 14832 1 0.16500 119244.000000
10267 14832 1 0.16500 119244.000000
10267 15448 1 0.16500 119244.000000
10268 14833 1 0.16500 119244.000000
10268 15418 1 0.16500 119244.000000
10269 14833 1 0.16500 119244.000000
10269 15555 1 0.16500 119244.000000
10270 14835 1 0.16500 119244.000000
10270 18445 1 0.16500 119244.000000
10271 14835 1 0.16500 119244.000000
10271 14965 1 0.16500 119244.000000
10272 13761 1 0.16500 119244.000000
10272 16167 1 0.16500 119244.000000
10273 14836 1 0.16500 119244.000000
10273 15831 1 0.16500 119244.000000
10274 14839 1 0.16500 119244.000000
10274 16239 1 0.16500 119244.000000
10275 11307 1 0.16500 119244.000000
10275 15723 1 0.16500 119244.000000
10276 15182 1 0.16500 119244.000000
10276 22465 1 0.16500 119244.000000
10277 14841 1 0.16500 119244.000000
10277 15576 1 0.16500 119244.000000
10278 14841 1 0.16500 119244.000000
10278 14977 1 0.16500 119244.000000
10279 14842 1 0.16500 119244.000000
10279 15893 1 0.16500 119244.000000
10280 14842 1 0.16500 119244.000000
10280 16250 1 0.16500 119244.000000
10281 14843 1 0.16500 119244.000000
10281 14884 1 0.16500 119244.000000
10282 14845 1 0.16500 119244.000000
10282 15540 1 0.16500 119244.000000
10283 14845 1 0.16500 119244.000000
10283 14889 1 0.16500 119244.000000
10284 14846 1 0.16500 119244.000000
10284 16043 1 0.16500 119244.000000
10285 12422 1 0.16500 119244.000000
10285 15936 1 0.16500 119244.000000
10286 14848 1 0.16500 119244.000000
10286 19777 1 0.16500 119244.000000
10287 14850 1 0.16500 119244.000000
10287 16157 1 0.16500 119244.000000
10288 14851 1 0.16500 119244.000000
10288 15970 1 0.16500 119244.000000
10289 14852 1 0.16500 119244.000000
10289 15048 1 0.16500 119244.000000
10290 11774 1 0.16500 119244.000000
10290 12800 1 0.16500 119244.000000
10291 14853 1 0.16500 119244.000000
10291 14978 1 0.16500 119244.000000
10292 14856 1 0.16500 119244.000000
10292 16270 1 0.16500 119244.000000
10293 14857 1 0.16500 119244.000000
10293 14932 1 0.16500 119244.000000
10294 14857 1 0.16500 119244.000000
10294 15930 1 0.16500 119244.000000
10295 14858 1 0.16500 119244.000000
10295 15099 1 0.16500 119244.000000
10296 13785 1 0.16500 119244.000000
10296 14859 1 0.16500 119244.000000
10297 14864 1 0.16500 119244.000000
10297 16277 1 0.16500 119244.000000
10298 14864 1 0.16500 119244.000000
10298 16250 1 0.16500 119244.000000
10299 14866 1 0.16500 119244.000000
10299 16070 1 0.16500 119244.000000
10300 14870 1 0.16500 119244.000000
10300 15463 1 0.16500 119244.000000
10301 14870 1 0.16500 119244.000000
10301 15749 1 0.16500 119244.000000
10302 15279 1 0.16500 119244.000000
10302 15463 1 0.16500 119244.000000
10303 14871 1 0.16500 119244.000000
10303 15820 1 0.16500 119244.000000
10304 14872 1 0.16500 119244.000000
10304 15088 1 0.16500 119244.000000
10305 14873 1 0.16500 119244.000000
10305 15766 1 0.16500 119244.000000
10306 15034 1 0.16500 119244.000000
10306 15840 1 0.16500 119244.000000
10307 15034 1 0.16500 119244.000000
10307 16353 1 0.16500 119244.000000
10308 14875 1 0.16500 119244.000000
10308 15798 1 0.16500 119244.000000
10309 14876 1 0.16500 119244.000000
10309 16250 1 0.16500 119244.000000
10310 14876 1 0.16500 119244.000000
10310 15893 1 0.16500 119244.000000
10311 14877 1 0.16500 119244.000000
10311 14972 1 0.16500 119244.000000
10312 14877 1 0.16500 119244.000000
10312 23197 1 0.16500 119244.000000
10313 14878 1 0.16500 119244.000000
10313 15815 1 0.16500 119244.000000
10314 15118 1 0.16500 119244.000000
10314 17781 1 0.16500 119244.000000
10315 14060 1 0.16500 119244.000000
10315 14879 1 0.16500 119244.000000
10316 14879 1 0.16500 119244.000000
10316 15120 1 0.16500 119244.000000
10317 14880 1 0.16500 119244.000000
10317 21337 1 0.16500 119244.000000
10318 14882 1 0.16500 119244.000000
10318 15767 1 0.16500 119244.000000
10319 14882 1 0.16500 119244.000000
10319 15753 1 0.16500 119244.000000
10320 14882 1 0.16500 119244.000000
10320 15598 1 0.16500 119244.000000
10321 14883 1 0.16500 119244.000000
10321 15508 1 0.16500 119244.000000
10322 14883 1 0.16500 119244.000000
10322 15280 1 0.16500 119244.000000
10323 14884 1 0.16500 119244.000000
10323 15151 1 0.16500 119244.000000
10324 14887 1 0.16500 119244.000000
10324 15392 1 0.16500 119244.000000
10325 14888 1 0.16500 119244.000000
10325 15272 1 0.16500 119244.000000
10326 14888 1 0.16500 119244.000000
10326 15323 1 0.16500 119244.000000
10327 14889 1 0.16500 119244.000000
10327 15348 1 0.16500 119244.000000
10328 14890 1 0.16500 119244.000000
10328 15195 1 0.16500 119244.000000
10329 20737 1 0.16500 119244.000000
10329 24262 1 0.16500 119244.000000
10330 15962 1 0.16500 119244.000000
10330 17137 1 0.16500 119244.000000
10331 14891 1 0.16500 119244.000000
10331 15056 1 0.16500 119244.000000
10332 12124 1 0.16500 119244.000000
10332 14891 1 0.16500 119244.000000
10333 14893 1 0.16500 119244.000000
10333 15676 1 0.16500 119244.000000
10334 14894 1 0.16500 119244.000000
10334 15571 1 0.16500 119244.000000
10335 14894 1 0.16500 119244.000000
10335 14945 1 0.16500 119244.000000
10336 14896 1 0.16500 119244.000000
10336 15208 1 0.16500 119244.000000
10337 14897 1 0.16500 119244.000000
10337 15590 1 0.16500 119244.000000
10338 14897 1 0.16500 119244.000000
10338 15747 1 0.16500 119244.000000
10339 15438 1 0.16500 119244.000000
10339 15859 1 0.16500 119244.000000
10340 14899 1 0.16500 119244.000000
10340 15438 1 0.16500 119244.000000
10341 14900 1 0.16500 119244.000000
10341 15285 1 0.16500 119244.000000
10342 14901 1 0.16500 119244.000000
10342 15168 1 0.16500 119244.000000
10343 14901 1 0.16500 119244.000000
10343 15819 1 0.16500 119244.000000
10344 14902 1 0.16500 119244.000000
10344 16278 1 0.16500 119244.000000
10345 14902 1 0.16500 119244.000000
10345 14980 1 0.16500 119244.000000
10346 14903 1 0.16500 119244.000000
10346 15757 1 0.16500 119244.000000
10347 14904 1 0.16500 119244.000000
10347 16199 1 0.16500 119244.000000
10348 14905 1 0.16500 119244.000000
10348 15614 1 0.16500 119244.000000
10349 14906 1 0.16500 119244.000000
10349 15475 1 0.16500 119244.000000
10350 14907 1 0.16500 119244.000000
10350 16255 1 0.16500 119244.000000
10351 14909 1 0.16500 119244.000000
10351 16091 1 0.16500 119244.000000
10352 14909 1 0.16500 119244.000000
10352 15248 1 0.16500 119244.000000
10353 14909 1 0.16500 119244.000000
10353 16166 1 0.16500 119244.000000
10354 14910 1 0.16500 119244.000000
10354 15862 1 0.16500 119244.000000
10355 14911 1 0.16500 119244.000000
10355 16367 1 0.16500 119244.000000
10356 20809 1 0.16500 119244.000000
10356 22513 1 0.16500 119244.000000
10357 15847 1 0.16500 119244.000000
10357 20449 1 0.16500 119244.000000
10358 14914 1 0.16500 119244.000000
10358 14970 1 0.16500 119244.000000
10359 14914 1 0.16500 119244.000000
10359 16106 1 0.16500 119244.000000
10360 14916 1 0.16500 119244.000000
10360 16268 1 0.16500 119244.000000
10361 14916 1 0.16500 119244.000000
10361 15177 1 0.16500 119244.000000
10362 14916 1 0.16500 119244.000000
10362 15324 1 0.16500 119244.000000
10363 14917 1 0.16500 119244.000000
10363 16068 1 0.16500 119244.000000
10364 14917 1 0.16500 119244.000000
10364 15754 1 0.16500 119244.000000
10365 14917 1 0.16500 119244.000000
10365 15642 1 0.16500 119244.000000
10366 14918 1 0.16500 119244.000000
10366 15951 1 0.16500 119244.000000
10367 14918 1 0.16500 119244.000000
10367 15658 1 0.16500 119244.000000
10368 14919 1 0.16500 119244.000000
10368 16178 1 0.16500 119244.000000
10369 14919 1 0.16500 119244.000000
10369 15242 1 0.16500 119244.000000
10370 13634 1 0.16500 119244.000000
10370 14920 1 0.16500 119244.000000
10371 14920 1 0.16500 119244.000000
10371 16151 1 0.16500 119244.000000
10372 14921 1 0.16500 119244.000000
10372 15750 1 0.16500 119244.000000
10373 14921 1 0.16500 119244.000000
10373 15074 1 0.16500 119244.000000
10374 14921 1 0.16500 119244.000000
10374 16200 1 0.16500 119244.000000
10375 14921 1 0.16500 119244.000000
10375 16175 1 0.16500 119244.000000
10376 14924 1 0.16500 119244.000000
10376 15558 1 0.16500 119244.000000
10377 14925 1 0.16500 119244.000000
10377 16101 1 0.16500 119244.000000
10378 14926 1 0.16500 119244.000000
10378 15837 1 0.16500 119244.000000
10379 14926 1 0.16500 119244.000000
10379 15872 1 0.16500 119244.000000
10380 14926 1 0.16500 119244.000000
10380 15100 1 0.16500 119244.000000
10381 14927 1 0.16500 119244.000000
10381 15478 1 0.16500 119244.000000
10382 14927 1 0.16500 119244.000000
10382 15148 1 0.16500 119244.000000
10383 14928 1 0.16500 119244.000000
10383 15013 1 0.16500 119244.000000
10384 14929 1 0.16500 119244.000000
10384 15229 1 0.16500 119244.000000
10385 14930 1 0.16500 119244.000000
10385 24262 1 0.16500 119244.000000
10386 14930 1 0.16500 119244.000000
10386 16104 1 0.16500 119244.000000
10387 14931 1 0.16500 119244.000000
10387 15806 1 0.16500 119244.000000
10388 14931 1 0.16500 119244.000000
10388 15642 1 0.16500 119244.000000
10389 14937 1 0.16500 119244.000000
10389 15839 1 0.16500 119244.000000
10390 14937 1 0.16500 119244.000000
10390 15497 1 0.16500 119244.000000
10391 14941 1 0.16500 119244.000000
10391 16242 1 0.16500 119244.000000
10392 14942 1 0.16500 119244.000000
10392 15431 1 0.16500 119244.000000
10393 14942 1 0.16500 119244.000000
10393 15945 1 0.16500 119244.000000
10394 14942 1 0.16500 119244.000000
10394 16030 1 0.16500 119244.000000
10395 14944 1 0.16500 119244.000000
10395 15667 1 0.16500 119244.000000
10396 14947 1 0.16500 119244.000000
10396 15290 1 0.16500 119244.000000
10397 16521 1 0.16500 119244.000000
10397 17879 1 0.16500 119244.000000
10398 14948 1 0.16500 119244.000000
10398 15069 1 0.16500 119244.000000
10399 14950 1 0.16500 119244.000000
10399 15366 1 0.16500 119244.000000
10400 14951 1 0.16500 119244.000000
10400 15384 1 0.16500 119244.000000
10401 13287 1 0.16500 119244.000000
10401 15855 1 0.16500 119244.000000
10402 14953 1 0.16500 119244.000000
10402 16274 1 0.16500 119244.000000
10403 14954 1 0.16500 119244.000000
10403 15524 1 0.16500 119244.000000
10404 14954 1 0.16500 119244.000000
10404 15396 1 0.16500 119244.000000
10405 14955 1 0.16500 119244.000000
10405 15443 1 0.16500 119244.000000
10406 13812 1 0.16500 119244.000000
10406 14955 1 0.16500 119244.000000
10407 13809 1 0.16500 119244.000000
10407 15029 1 0.16500 119244.000000
10408 14957 1 0.16500 119244.000000
10408 14967 1 0.16500 119244.000000
10409 14958 1 0.16500 119244.000000
10409 18589 1 0.16500 119244.000000
10410 14959 1 0.16500 119244.000000
10410 14962 1 0.16500 119244.000000
10411 14960 1 0.16500 119244.000000
10411 15889 1 0.16500 119244.000000
10412 14961 1 0.16500 119244.000000
10412 15281 1 0.16500 119244.000000
10413 19105 1 0.16500 119244.000000
10413 24127 1 0.16500 119244.000000
10414 13433 1 0.16500 119244.000000
10414 24127 1 0.16500 119244.000000
10415 14962 1 0.16500 119244.000000
10415 15944 1 0.16500 119244.000000
10416 14964 1 0.16500 119244.000000
10416 15512 1 0.16500 119244.000000
10417 14964 1 0.16500 119244.000000
10417 15214 1 0.16500 119244.000000
10418 14965 1 0.16500 119244.000000
10418 15243 1 0.16500 119244.000000
10419 14967 1 0.16500 119244.000000
10419 16087 1 0.16500 119244.000000
10420 14967 1 0.16500 119244.000000
10420 16070 1 0.16500 119244.000000
10421 14968 1 0.16500 119244.000000
10421 14988 1 0.16500 119244.000000
10422 11491 1 0.16500 119244.000000
10422 15838 1 0.16500 119244.000000
10423 14972 1 0.16500 119244.000000
10423 15253 1 0.16500 119244.000000
10424 14974 1 0.16500 119244.000000
10424 15937 1 0.16500 119244.000000
10425 14975 1 0.16500 119244.000000
10425 24202 1 0.16500 119244.000000
10426 14976 1 0.16500 119244.000000
10426 15566 1 0.16500 119244.000000
10427 14978 1 0.16500 119244.000000
10427 15703 1 0.16500 119244.000000
10428 14979 1 0.16500 119244.000000
10428 15044 1 0.16500 119244.000000
10429 14979 1 0.16500 119244.000000
10429 15882 1 0.16500 119244.000000
10430 14980 1 0.16500 119244.000000
10430 15153 1 0.16500 119244.000000
10431 14980 1 0.16500 119244.000000
10431 15230 1 0.16500 119244.000000
10432 14981 1 0.16500 119244.000000
10432 15165 1 0.16500 119244.000000
10433 14985 1 0.16500 119244.000000
10433 16451 1 0.16500 119244.000000
10434 14987 1 0.16500 119244.000000
10434 15695 1 0.16500 119244.000000
10435 15731 1 0.16500 119244.000000
10435 22405 1 0.16500 119244.000000
10436 16120 1 0.16500 119244.000000
10436 22405 1 0.16500 119244.000000
10437 14991 1 0.16500 119244.000000
10437 22633 1 0.16500 119244.000000
10438 14991 1 0.16500 119244.000000
10438 15011 1 0.16500 119244.000000
10439 14991 1 0.16500 119244.000000
10439 22261 1 0.16500 119244.000000
10440 14991 1 0.16500 119244.000000
10440 18229 1 0.16500 119244.000000
10441 19849 1 0.16500 119244.000000
10441 20677 1 0.16500 119244.000000
10442 15764 1 0.16500 119244.000000
10442 19849 1 0.16500 119244.000000
10443 14992 1 0.16500 119244.000000
10443 15583 1 0.16500 119244.000000
10444 14993 1 0.16500 119244.000000
10444 15676 1 0.16500 119244.000000
10445 14993 1 0.16500 119244.000000
10445 15952 1 0.16500 119244.000000
10446 14994 1 0.16500 119244.000000
10446 16136 1 0.16500 119244.000000
10447 14995 1 0.16500 119244.000000
10447 15071 1 0.16500 119244.000000
10448 14996 1 0.16500 119244.000000
10448 15390 1 0.16500 119244.000000
10449 14997 1 0.16500 119244.000000
10449 16230 1 0.16500 119244.000000
10450 14997 1 0.16500 119244.000000
10450 24184 1 0.16500 119244.000000
10451 14998 1 0.16500 119244.000000
10451 15052 1 0.16500 119244.000000
10452 14998 1 0.16500 119244.000000
10452 15788 1 0.16500 119244.000000
10453 14998 1 0.16500 119244.000000
10453 15561 1 0.16500 119244.000000
10454 15000 1 0.16500 119244.000000
10454 16148 1 0.16500 119244.000000
10455 15000 1 0.16500 119244.000000
10455 16159 1 0.16500 119244.000000
10456 15002 1 0.16500 119244.000000
10456 15604 1 0.16500 119244.000000
10457 15003 1 0.16500 119244.000000
10457 19129 1 0.16500 119244.000000
10458 15004 1 0.16500 119244.000000
10458 15763 1 0.16500 119244.000000
10459 14087 1 0.16500 119244.000000
10459 15484 1 0.16500 119244.000000
10460 15005 1 0.16500 119244.000000
10460 15685 1 0.16500 119244.000000
10461 15368 1 0.16500 119244.000000
10461 19873 1 0.16500 119244.000000
10462 15776 1 0.16500 119244.000000
10462 19873 1 0.16500 119244.000000
10463 17977 1 0.16500 119244.000000
10463 21853 1 0.16500 119244.000000
10464 15007 1 0.16500 119244.000000
10464 15498 1 0.16500 119244.000000
10465 15009 1 0.16500 119244.000000
10465 16215 1 0.16500 119244.000000
10466 15010 1 0.16500 119244.000000
10466 15733 1 0.16500 119244.000000
10467 14448 1 0.16500 119244.000000
10467 15010 1 0.16500 119244.000000
10468 12165 1 0.16500 119244.000000
10468 15011 1 0.16500 119244.000000
10469 15012 1 0.16500 119244.000000
10469 15701 1 0.16500 119244.000000
10470 15014 1 0.16500 119244.000000
10470 15453 1 0.16500 119244.000000
10471 12760 1 0.16500 119244.000000
10471 15015 1 0.16500 119244.000000
10472 15015 1 0.16500 119244.000000
10472 15397 1 0.16500 119244.000000
10473 15016 1 0.16500 119244.000000
10473 15803 1 0.16500 119244.000000
10474 15016 1 0.16500 119244.000000
10474 15353 1 0.16500 119244.000000
10475 15612 1 0.16500 119244.000000
10475 24133 1 0.16500 119244.000000
10476 15017 1 0.16500 119244.000000
10476 15213 1 0.16500 119244.000000
10477 15019 1 0.16500 119244.000000
10477 15194 1 0.16500 119244.000000
10478 15020 1 0.16500 119244.000000
10478 15131 1 0.16500 119244.000000
10479 15021 1 0.16500 119244.000000
10479 15411 1 0.16500 119244.000000
10480 13148 1 0.16500 119244.000000
10480 15025 1 0.16500 119244.000000
10481 15025 1 0.16500 119244.000000
10481 15910 1 0.16500 119244.000000
10482 15026 1 0.16500 119244.000000
10482 15077 1 0.16500 119244.000000
10483 15027 1 0.16500 119244.000000
10483 15769 1 0.16500 119244.000000
10484 15028 1 0.16500 119244.000000
10484 15726 1 0.16500 119244.000000
10485 15029 1 0.16500 119244.000000
10485 15171 1 0.16500 119244.000000
10486 15030 1 0.16500 119244.000000
10486 15099 1 0.16500 119244.000000
10487 15032 1 0.16500 119244.000000
10487 15569 1 0.16500 119244.000000
10488 15032 1 0.16500 119244.000000
10488 15562 1 0.16500 119244.000000
10489 13788 1 0.16500 119244.000000
10489 15033 1 0.16500 119244.000000
10490 15033 1 0.16500 119244.000000
10490 15765 1 0.16500 119244.000000
10491 15430 1 0.16500 119244.000000
10491 23209 1 0.16500 119244.000000
10492 12259 1 0.16500 119244.000000
10492 21757 1 0.16500 119244.000000
10493 15036 1 0.16500 119244.000000
10493 15584 1 0.16500 119244.000000
10494 15039 1 0.16500 119244.000000
10494 15656 1 0.16500 119244.000000
10495 15040 1 0.16500 119244.000000
10495 15797 1 0.16500 119244.000000
10496 11810 1 0.16500 119244.000000
10496 15041 1 0.16500 119244.000000
10497 15042 1 0.16500 119244.000000
10497 16184 1 0.16500 119244.000000
10498 15043 1 0.16500 119244.000000
10498 15769 1 0.16500 119244.000000
10499 15044 1 0.16500 119244.000000
10499 15415 1 0.16500 119244.000000
10500 15045 1 0.16500 119244.000000
10500 19777 1 0.16500 119244.000000
10501 15047 1 0.16500 119244.000000
10501 15856 1 0.16500 119244.000000
10502 15051 1 0.16500 119244.000000
10502 15948 1 0.16500 119244.000000
10503 15051 1 0.16500 119244.000000
10503 16153 1 0.16500 119244.000000
10504 15053 1 0.16500 119244.000000
10504 15578 1 0.16500 119244.000000
10505 15054 1 0.16500 119244.000000
10505 15863 1 0.16500 119244.000000
10506 15054 1 0.16500 119244.000000
10506 15111 1 0.16500 119244.000000
10507 15055 1 0.16500 119244.000000
10507 15280 1 0.16500 119244.000000
10508 15130 1 0.16500 119244.000000
10508 24142 1 0.16500 119244.000000
10509 15058 1 0.16500 119244.000000
10509 16114 1 0.16500 119244.000000
10510 15058 1 0.16500 119244.000000
10510 16107 1 0.16500 119244.000000
10511 15058 1 0.16500 119244.000000
10511 15237 1 0.16500 119244.000000
10512 15060 1 0.16500 119244.000000
10512 16018 1 0.16500 119244.000000
10513 13433 1 0.16500 119244.000000
10513 21265 1 0.16500 119244.000000
10514 21265 1 0.16500 119244.000000
10514 22489 1 0.16500 119244.000000
10515 15063 1 0.16500 119244.000000
10515 24151 1 0.16500 119244.000000
10516 15063 1 0.16500 119244.000000
10516 15090 1 0.16500 119244.000000
10517 15064 1 0.16500 119244.000000
10517 15328 1 0.16500 119244.000000
10518 12387 1 0.16500 119244.000000
10518 13092 1 0.16500 119244.000000
10519 15066 1 0.16500 119244.000000
10519 15148 1 0.16500 119244.000000
10520 15067 1 0.16500 119244.000000
10520 15773 1 0.16500 119244.000000
10521 14424 1 0.16500 119244.000000
10521 15385 1 0.16500 119244.000000
10522 15069 1 0.16500 119244.000000
10522 15196 1 0.16500 119244.000000
10523 15069 1 0.16500 119244.000000
10523 15733 1 0.16500 119244.000000
10524 15071 1 0.16500 119244.000000
10524 15870 1 0.16500 119244.000000
10525 15071 1 0.16500 119244.000000
10525 16042 1 0.16500 119244.000000
10526 15072 1 0.16500 119244.000000
10526 15156 1 0.16500 119244.000000
10527 15074 1 0.16500 119244.000000
10527 15611 1 0.16500 119244.000000
10528 15075 1 0.16500 119244.000000
10528 15891 1 0.16500 119244.000000
10529 15077 1 0.16500 119244.000000
10529 15829 1 0.16500 119244.000000
10530 15078 1 0.16500 119244.000000
10530 15129 1 0.16500 119244.000000
10531 12421 1 0.16500 119244.000000
10531 15683 1 0.16500 119244.000000
10532 12421 1 0.16500 119244.000000
10532 15550 1 0.16500 119244.000000
10533 15081 1 0.16500 119244.000000
10533 15965 1 0.16500 119244.000000
10534 15082 1 0.16500 119244.000000
10534 15481 1 0.16500 119244.000000
10535 15082 1 0.16500 119244.000000
10535 15719 1 0.16500 119244.000000
10536 15083 1 0.16500 119244.000000
10536 19621 1 0.16500 119244.000000
10537 15084 1 0.16500 119244.000000
10537 16106 1 0.16500 119244.000000
10538 15085 1 0.16500 119244.000000
10538 15188 1 0.16500 119244.000000
10539 15086 1 0.16500 119244.000000
10539 15478 1 0.16500 119244.000000
10540 15087 1 0.16500 119244.000000
10540 15190 1 0.16500 119244.000000
10541 15088 1 0.16500 119244.000000
10541 15395 1 0.16500 119244.000000
10542 15088 1 0.16500 119244.000000
10542 16040 1 0.16500 119244.000000
10543 15089 1 0.16500 119244.000000
10543 15732 1 0.16500 119244.000000
10544 15090 1 0.16500 119244.000000
10544 19693 1 0.16500 119244.000000
10545 15091 1 0.16500 119244.000000
10545 17389 1 0.16500 119244.000000
10546 15092 1 0.16500 119244.000000
10546 15413 1 0.16500 119244.000000
10547 15092 1 0.16500 119244.000000
10547 15374 1 0.16500 119244.000000
10548 15093 1 0.16500 119244.000000
10548 16153 1 0.16500 119244.000000
10549 15368 1 0.16500 119244.000000
10549 16479 1 0.16500 119244.000000
10550 15094 1 0.16500 119244.000000
10550 17333 1 0.16500 119244.000000
10551 15094 1 0.16500 119244.000000
10551 23281 1 0.16500 119244.000000
10552 15094 1 0.16500 119244.000000
10552 15178 1 0.16500 119244.000000
10553 15096 1 0.16500 119244.000000
10553 15834 1 0.16500 119244.000000
10554 15097 1 0.16500 119244.000000
10554 16213 1 0.16500 119244.000000
10555 15097 1 0.16500 119244.000000
10555 24304 1 0.16500 119244.000000
10556 15098 1 0.16500 119244.000000
10556 16049 1 0.16500 119244.000000
10557 15098 1 0.16500 119244.000000
10557 16003 1 0.16500 119244.000000
10558 15098 1 0.16500 119244.000000
10558 15108 1 0.16500 119244.000000
10559 15100 1 0.16500 119244.000000
10559 16211 1 0.16500 119244.000000
10560 20017 1 0.16500 119244.000000
10560 21961 1 0.16500 119244.000000
10561 15868 1 0.16500 119244.000000
10561 21961 1 0.16500 119244.000000
10562 15101 1 0.16500 119244.000000
10562 15963 1 0.16500 119244.000000
10563 15101 1 0.16500 119244.000000
10563 15725 1 0.16500 119244.000000
10564 15101 1 0.16500 119244.000000
10564 15446 1 0.16500 119244.000000
10565 15102 1 0.16500 119244.000000
10565 15630 1 0.16500 119244.000000
10566 15103 1 0.16500 119244.000000
10566 15134 1 0.16500 119244.000000
10567 15104 1 0.16500 119244.000000
10567 17893 1 0.16500 119244.000000
10568 15105 1 0.16500 119244.000000
10568 15918 1 0.16500 119244.000000
10569 15106 1 0.16500 119244.000000
10569 18757 1 0.16500 119244.000000
10570 15106 1 0.16500 119244.000000
10570 24235 1 0.16500 119244.000000
10571 15107 1 0.16500 119244.000000
10571 15257 1 0.16500 119244.000000
10572 15965 1 0.16500 119244.000000
10572 22921 1 0.16500 119244.000000
10573 15110 1 0.16500 119244.000000
10573 16256 1 0.16500 119244.000000
10574 15111 1 0.16500 119244.000000
10574 15948 1 0.16500 119244.000000
10575 15112 1 0.16500 119244.000000
10575 15496 1 0.16500 119244.000000
10576 12635 1 0.16500 119244.000000
10576 15112 1 0.16500 119244.000000
10577 15112 1 0.16500 119244.000000
10577 15996 1 0.16500 119244.000000
10578 15114 1 0.16500 119244.000000
10578 15355 1 0.16500 119244.000000
10579 15116 1 0.16500 119244.000000
10579 16133 1 0.16500 119244.000000
10580 15116 1 0.16500 119244.000000
10580 15972 1 0.16500 119244.000000
10581 15542 1 0.16500 119244.000000
10581 24148 1 0.16500 119244.000000
10582 20773 1 0.16500 119244.000000
10582 24148 1 0.16500 119244.000000
10583 15118 1 0.16500 119244.000000
10583 15948 1 0.16500 119244.000000
10584 15119 1 0.16500 119244.000000
10584 15349 1 0.16500 119244.000000
10585 15119 1 0.16500 119244.000000
10585 15145 1 0.16500 119244.000000
10586 15120 1 0.16500 119244.000000
10586 15193 1 0.16500 119244.000000
10587 16493 1 0.16500 119244.000000
10587 21577 1 0.16500 119244.000000
10588 15121 1 0.16500 119244.000000
10588 15418 1 0.16500 119244.000000
10589 15124 1 0.16500 119244.000000
10589 15969 1 0.16500 119244.000000
10590 15125 1 0.16500 119244.000000
10590 16205 1 0.16500 119244.000000
10591 15143 1 0.16500 119244.000000
10591 24151 1 0.16500 119244.000000
10592 15652 1 0.16500 119244.000000
10592 24154 1 0.16500 119244.000000
10593 16177 1 0.16500 119244.000000
10593 24154 1 0.16500 119244.000000
10594 15127 1 0.16500 119244.000000
10594 15839 1 0.16500 119244.000000
10595 15128 1 0.16500 119244.000000
10595 15911 1 0.16500 119244.000000
10596 15129 1 0.16500 119244.000000
10596 16152 1 0.16500 119244.000000
10597 15130 1 0.16500 119244.000000
10597 15541 1 0.16500 119244.000000
10598 15131 1 0.16500 119244.000000
10598 15295 1 0.16500 119244.000000
10599 15132 1 0.16500 119244.000000
10599 15706 1 0.16500 119244.000000
10600 15133 1 0.16500 119244.000000
10600 16203 1 0.16500 119244.000000
10601 15133 1 0.16500 119244.000000
10601 16109 1 0.16500 119244.000000
10602 15136 1 0.16500 119244.000000
10602 16189 1 0.16500 119244.000000
10603 15137 1 0.16500 119244.000000
10603 15975 1 0.16500 119244.000000
10604 15137 1 0.16500 119244.000000
10604 15186 1 0.16500 119244.000000
10605 15138 1 0.16500 119244.000000
10605 15381 1 0.16500 119244.000000
10606 15139 1 0.16500 119244.000000
10606 16176 1 0.16500 119244.000000
10607 15764 1 0.16500 119244.000000
10607 24157 1 0.16500 119244.000000
10608 15142 1 0.16500 119244.000000
10608 15878 1 0.16500 119244.000000
10609 15142 1 0.16500 119244.000000
10609 16029 1 0.16500 119244.000000
10610 15143 1 0.16500 119244.000000
10610 16037 1 0.16500 119244.000000
10611 15143 1 0.16500 119244.000000
10611 20389 1 0.16500 119244.000000
10612 15145 1 0.16500 119244.000000
10612 15698 1 0.16500 119244.000000
10613 15145 1 0.16500 119244.000000
10613 15819 1 0.16500 119244.000000
10614 15147 1 0.16500 119244.000000
10614 16201 1 0.16500 119244.000000
10615 15149 1 0.16500 119244.000000
10615 15985 1 0.16500 119244.000000
10616 15151 1 0.16500 119244.000000
10616 15307 1 0.16500 119244.000000
10617 15152 1 0.16500 119244.000000
10617 15531 1 0.16500 119244.000000
10618 15152 1 0.16500 119244.000000
10618 15310 1 0.16500 119244.000000
10619 15153 1 0.16500 119244.000000
10619 15823 1 0.16500 119244.000000
10620 15157 1 0.16500 119244.000000
10620 15938 1 0.16500 119244.000000
10621 15157 1 0.16500 119244.000000
10621 15322 1 0.16500 119244.000000
10622 15158 1 0.16500 119244.000000
10622 15684 1 0.16500 119244.000000
10623 15159 1 0.16500 119244.000000
10623 16012 1 0.16500 119244.000000
10624 15159 1 0.16500 119244.000000
10624 16096 1 0.16500 119244.000000
10625 13180 1 0.16500 119244.000000
10625 15383 1 0.16500 119244.000000
10626 16229 1 0.16500 119244.000000
10626 23005 1 0.16500 119244.000000
10627 15160 1 0.16500 119244.000000
10627 15168 1 0.16500 119244.000000
10628 12604 1 0.16500 119244.000000
10628 16013 1 0.16500 119244.000000
10629 15161 1 0.16500 119244.000000
10629 15557 1 0.16500 119244.000000
10630 15161 1 0.16500 119244.000000
10630 15853 1 0.16500 119244.000000
10631 15162 1 0.16500 119244.000000
10631 15628 1 0.16500 119244.000000
10632 15165 1 0.16500 119244.000000
10632 16263 1 0.16500 119244.000000
10633 15166 1 0.16500 119244.000000
10633 15296 1 0.16500 119244.000000
10634 15168 1 0.16500 119244.000000
10634 15304 1 0.16500 119244.000000
10635 15170 1 0.16500 119244.000000
10635 15696 1 0.16500 119244.000000
10636 15170 1 0.16500 119244.000000
10636 15582 1 0.16500 119244.000000
10637 15172 1 0.16500 119244.000000
10637 15978 1 0.16500 119244.000000
10638 13818 1 0.16500 119244.000000
10638 15173 1 0.16500 119244.000000
10639 15174 1 0.16500 119244.000000
10639 16101 1 0.16500 119244.000000
10640 15174 1 0.16500 119244.000000
10640 15619 1 0.16500 119244.000000
10641 15174 1 0.16500 119244.000000
10641 15680 1 0.16500 119244.000000
10642 15174 1 0.16500 119244.000000
10642 15866 1 0.16500 119244.000000
10643 15175 1 0.16500 119244.000000
10643 15682 1 0.16500 119244.000000
10644 15176 1 0.16500 119244.000000
10644 15502 1 0.16500 119244.000000
10645 15179 1 0.16500 119244.000000
10645 15831 1 0.16500 119244.000000
10646 15179 1 0.16500 119244.000000
10646 15966 1 0.16500 119244.000000
10647 15159 1 0.16500 119244.000000
10647 15180 1 0.16500 119244.000000
10648 15181 1 0.16500 119244.000000
10648 15199 1 0.16500 119244.000000
10649 15182 1 0.16500 119244.000000
10649 22441 1 0.16500 119244.000000
10650 15183 1 0.16500 119244.000000
10650 15993 1 0.16500 119244.000000
10651 15184 1 0.16500 119244.000000
10651 16065 1 0.16500 119244.000000
10652 15184 1 0.16500 119244.000000
10652 15269 1 0.16500 119244.000000
10653 15185 1 0.16500 119244.000000
10653 15921 1 0.16500 119244.000000
10654 15186 1 0.16500 119244.000000
10654 15283 1 0.16500 119244.000000
10655 15187 1 0.16500 119244.000000
10655 15770 1 0.16500 119244.000000
10656 15187 1 0.16500 119244.000000
10656 15697 1 0.16500 119244.000000
10657 15187 1 0.16500 119244.000000
10657 15569 1 0.16500 119244.000000
10658 15188 1 0.16500 119244.000000
10658 15456 1 0.16500 119244.000000
10659 15191 1 0.16500 119244.000000
10659 15246 1 0.16500 119244.000000
10660 15192 1 0.16500 119244.000000
10660 15833 1 0.16500 119244.000000
10661 14926 1 0.16500 119244.000000
10661 15192 1 0.16500 119244.000000
10662 15193 1 0.16500 119244.000000
10662 15684 1 0.16500 119244.000000
10663 15194 1 0.16500 119244.000000
10663 15685 1 0.16500 119244.000000
10664 15195 1 0.16500 119244.000000
10664 15265 1 0.16500 119244.000000
10665 15196 1 0.16500 119244.000000
10665 15321 1 0.16500 119244.000000
10666 15198 1 0.16500 119244.000000
10666 15309 1 0.16500 119244.000000
10667 15200 1 0.16500 119244.000000
10667 15396 1 0.16500 119244.000000
10668 15202 1 0.16500 119244.000000
10668 15215 1 0.16500 119244.000000
10669 15204 1 0.16500 119244.000000
10669 15671 1 0.16500 119244.000000
10670 15204 1 0.16500 119244.000000
10670 21901 1 0.16500 119244.000000
10671 15204 1 0.16500 119244.000000
10671 19813 1 0.16500 119244.000000
10672 14685 1 0.16500 119244.000000
10672 15205 1 0.16500 119244.000000
10673 15210 1 0.16500 119244.000000
10673 15521 1 0.16500 119244.000000
10674 15211 1 0.16500 119244.000000
10674 24196 1 0.16500 119244.000000
10675 15212 1 0.16500 119244.000000
10675 15293 1 0.16500 119244.000000
10676 11921 1 0.16500 119244.000000
10676 15661 1 0.16500 119244.000000
10677 13925 1 0.16500 119244.000000
10677 15214 1 0.16500 119244.000000
10678 21409 1 0.16500 119244.000000
10678 21949 1 0.16500 119244.000000
10679 15791 1 0.16500 119244.000000
10679 21949 1 0.16500 119244.000000
10680 14442 1 0.16500 119244.000000
10680 16098 1 0.16500 119244.000000
10681 12635 1 0.16500 119244.000000
10681 15585 1 0.16500 119244.000000
10682 15218 1 0.16500 119244.000000
10682 15873 1 0.16500 119244.000000
10683 15219 1 0.16500 119244.000000
10683 15595 1 0.16500 119244.000000
10684 15220 1 0.16500 119244.000000
10684 16020 1 0.16500 119244.000000
10685 15222 1 0.16500 119244.000000
10685 15795 1 0.16500 119244.000000
10686 15222 1 0.16500 119244.000000
10686 20953 1 0.16500 119244.000000
10687 15223 1 0.16500 119244.000000
10687 15549 1 0.16500 119244.000000
10688 15224 1 0.16500 119244.000000
10688 16233 1 0.16500 119244.000000
10689 15224 1 0.16500 119244.000000
10689 16219 1 0.16500 119244.000000
10690 15224 1 0.16500 119244.000000
10690 15337 1 0.16500 119244.000000
10691 15225 1 0.16500 119244.000000
10691 15919 1 0.16500 119244.000000
10692 15226 1 0.16500 119244.000000
10692 15673 1 0.16500 119244.000000
10693 15226 1 0.16500 119244.000000
10693 15778 1 0.16500 119244.000000
10694 15659 1 0.16500 119244.000000
10694 18589 1 0.16500 119244.000000
10695 15228 1 0.16500 119244.000000
10695 16194 1 0.16500 119244.000000
10696 15229 1 0.16500 119244.000000
10696 15922 1 0.16500 119244.000000
10697 15233 1 0.16500 119244.000000
10697 15746 1 0.16500 119244.000000
10698 14772 1 0.16500 119244.000000
10698 15484 1 0.16500 119244.000000
10699 15236 1 0.16500 119244.000000
10699 16110 1 0.16500 119244.000000
10700 15236 1 0.16500 119244.000000
10700 15862 1 0.16500 119244.000000
10701 15238 1 0.16500 119244.000000
10701 15439 1 0.16500 119244.000000
10702 15240 1 0.16500 119244.000000
10702 15825 1 0.16500 119244.000000
10703 15246 1 0.16500 119244.000000
10703 16178 1 0.16500 119244.000000
10704 13274 1 0.16500 119244.000000
10704 15247 1 0.16500 119244.000000
10705 15249 1 0.16500 119244.000000
10705 21037 1 0.16500 119244.000000
10706 15250 1 0.16500 119244.000000
10706 16040 1 0.16500 119244.000000
10707 15251 1 0.16500 119244.000000
10707 16035 1 0.16500 119244.000000
10708 15251 1 0.16500 119244.000000
10708 15450 1 0.16500 119244.000000
10709 15252 1 0.16500 119244.000000
10709 16118 1 0.16500 119244.000000
10710 15254 1 0.16500 119244.000000
10710 15444 1 0.16500 119244.000000
10711 15254 1 0.16500 119244.000000
10711 24286 1 0.16500 119244.000000
10712 15256 1 0.16500 119244.000000
10712 15559 1 0.16500 119244.000000
10713 15256 1 0.16500 119244.000000
10713 16206 1 0.16500 119244.000000
10714 15258 1 0.16500 119244.000000
10714 15539 1 0.16500 119244.000000
10715 15258 1 0.16500 119244.000000
10715 15594 1 0.16500 119244.000000
10716 15260 1 0.16500 119244.000000
10716 15993 1 0.16500 119244.000000
10717 15261 1 0.16500 119244.000000
10717 15883 1 0.16500 119244.000000
10718 15262 1 0.16500 119244.000000
10718 15495 1 0.16500 119244.000000
10719 15264 1 0.16500 119244.000000
10719 15940 1 0.16500 119244.000000
10720 15265 1 0.16500 119244.000000
10720 15414 1 0.16500 119244.000000
10721 15266 1 0.16500 119244.000000
10721 15815 1 0.16500 119244.000000
10722 15271 1 0.16500 119244.000000
10722 15854 1 0.16500 119244.000000
10723 15271 1 0.16500 119244.000000
10723 15322 1 0.16500 119244.000000
10724 15275 1 0.16500 119244.000000
10724 15676 1 0.16500 119244.000000
10725 15275 1 0.16500 119244.000000
10725 15395 1 0.16500 119244.000000
10726 15277 1 0.16500 119244.000000
10726 15932 1 0.16500 119244.000000
10727 13847 1 0.16500 119244.000000
10727 15690 1 0.16500 119244.000000
10728 15278 1 0.16500 119244.000000
10728 15799 1 0.16500 119244.000000
10729 15281 1 0.16500 119244.000000
10729 15637 1 0.16500 119244.000000
10730 15283 1 0.16500 119244.000000
10730 15752 1 0.16500 119244.000000
10731 15284 1 0.16500 119244.000000
10731 15445 1 0.16500 119244.000000
10732 15285 1 0.16500 119244.000000
10732 15573 1 0.16500 119244.000000
10733 15286 1 0.16500 119244.000000
10733 16136 1 0.16500 119244.000000
10734 15286 1 0.16500 119244.000000
10734 16084 1 0.16500 119244.000000
10735 15287 1 0.16500 119244.000000
10735 15707 1 0.16500 119244.000000
10736 15653 1 0.16500 119244.000000
10736 20905 1 0.16500 119244.000000
10737 14236 1 0.16500 119244.000000
10737 15576 1 0.16500 119244.000000
10738 15288 1 0.16500 119244.000000
10738 15688 1 0.16500 119244.000000
10739 15289 1 0.16500 119244.000000
10739 15744 1 0.16500 119244.000000
10740 15292 1 0.16500 119244.000000
10740 15358 1 0.16500 119244.000000
10741 15010 1 0.16500 119244.000000
10741 15293 1 0.16500 119244.000000
10742 15294 1 0.16500 119244.000000
10742 16176 1 0.16500 119244.000000
10743 15294 1 0.16500 119244.000000
10743 16216 1 0.16500 119244.000000
10744 15639 1 0.16500 119244.000000
10744 20425 1 0.16500 119244.000000
10745 15296 1 0.16500 119244.000000
10745 15825 1 0.16500 119244.000000
10746 15296 1 0.16500 119244.000000
10746 15815 1 0.16500 119244.000000
10747 20941 1 0.16500 119244.000000
10747 24172 1 0.16500 119244.000000
10748 15297 1 0.16500 119244.000000
10748 16250 1 0.16500 119244.000000
10749 15298 1 0.16500 119244.000000
10749 15484 1 0.16500 119244.000000
10750 15299 1 0.16500 119244.000000
10750 15319 1 0.16500 119244.000000
10751 15302 1 0.16500 119244.000000
10751 15775 1 0.16500 119244.000000
10752 15305 1 0.16500 119244.000000
10752 15354 1 0.16500 119244.000000
10753 15306 1 0.16500 119244.000000
10753 15477 1 0.16500 119244.000000
10754 15306 1 0.16500 119244.000000
10754 15986 1 0.16500 119244.000000
10755 14141 1 0.16500 119244.000000
10755 15312 1 0.16500 119244.000000
10756 18541 1 0.16500 119244.000000
10756 22129 1 0.16500 119244.000000
10757 16209 1 0.16500 119244.000000
10757 18541 1 0.16500 119244.000000
10758 15727 1 0.16500 119244.000000
10758 22573 1 0.16500 119244.000000
10759 15315 1 0.16500 119244.000000
10759 24232 1 0.16500 119244.000000
10760 15318 1 0.16500 119244.000000
10760 15838 1 0.16500 119244.000000
10761 15319 1 0.16500 119244.000000
10761 15811 1 0.16500 119244.000000
10762 15320 1 0.16500 119244.000000
10762 15959 1 0.16500 119244.000000
10763 15322 1 0.16500 119244.000000
10763 15651 1 0.16500 119244.000000
10764 15326 1 0.16500 119244.000000
10764 20341 1 0.16500 119244.000000
10765 15326 1 0.16500 119244.000000
10765 15341 1 0.16500 119244.000000
10766 15326 1 0.16500 119244.000000
10766 24271 1 0.16500 119244.000000
10767 15327 1 0.16500 119244.000000
10767 15329 1 0.16500 119244.000000
10768 15328 1 0.16500 119244.000000
10768 15480 1 0.16500 119244.000000
10769 15329 1 0.16500 119244.000000
10769 15654 1 0.16500 119244.000000
10770 15331 1 0.16500 119244.000000
10770 15770 1 0.16500 119244.000000
10771 15332 1 0.16500 119244.000000
10771 15479 1 0.16500 119244.000000
10772 15333 1 0.16500 119244.000000
10772 15507 1 0.16500 119244.000000
10773 15334 1 0.16500 119244.000000
10773 15443 1 0.16500 119244.000000
10774 15335 1 0.16500 119244.000000
10774 15482 1 0.16500 119244.000000
10775 15336 1 0.16500 119244.000000
10775 15675 1 0.16500 119244.000000
10776 15337 1 0.16500 119244.000000
10776 16072 1 0.16500 119244.000000
10777 15337 1 0.16500 119244.000000
10777 15810 1 0.16500 119244.000000
10778 15339 1 0.16500 119244.000000
10778 15829 1 0.16500 119244.000000
10779 15340 1 0.16500 119244.000000
10779 15524 1 0.16500 119244.000000
10780 15340 1 0.16500 119244.000000
10780 15667 1 0.16500 119244.000000
10781 15344 1 0.16500 119244.000000
10781 16192 1 0.16500 119244.000000
10782 15348 1 0.16500 119244.000000
10782 15356 1 0.16500 119244.000000
10783 15348 1 0.16500 119244.000000
10783 15362 1 0.16500 119244.000000
10784 15351 1 0.16500 119244.000000
10784 16815 1 0.16500 119244.000000
10785 15354 1 0.16500 119244.000000
10785 15428 1 0.16500 119244.000000
10786 15354 1 0.16500 119244.000000
10786 21637 1 0.16500 119244.000000
10787 15356 1 0.16500 119244.000000
10787 15433 1 0.16500 119244.000000
10788 15360 1 0.16500 119244.000000
10788 16052 1 0.16500 119244.000000
10789 15362 1 0.16500 119244.000000
10789 16157 1 0.16500 119244.000000
10790 19981 1 0.16500 119244.000000
10790 24187 1 0.16500 119244.000000
10791 15363 1 0.16500 119244.000000
10791 15970 1 0.16500 119244.000000
10792 15364 1 0.16500 119244.000000
10792 16149 1 0.16500 119244.000000
10793 13661 1 0.16500 119244.000000
10793 15364 1 0.16500 119244.000000
10794 15365 1 0.16500 119244.000000
10794 15824 1 0.16500 119244.000000
10795 15958 1 0.16500 119244.000000
10795 24190 1 0.16500 119244.000000
10796 15366 1 0.16500 119244.000000
10796 16114 1 0.16500 119244.000000
10797 15367 1 0.16500 119244.000000
10797 15543 1 0.16500 119244.000000
10798 15367 1 0.16500 119244.000000
10798 15879 1 0.16500 119244.000000
10799 15369 1 0.16500 119244.000000
10799 15828 1 0.16500 119244.000000
10800 15372 1 0.16500 119244.000000
10800 16274 1 0.16500 119244.000000
10801 15372 1 0.16500 119244.000000
10801 19741 1 0.16500 119244.000000
10802 19393 1 0.16500 119244.000000
10802 24205 1 0.16500 119244.000000
10803 15377 1 0.16500 119244.000000
10803 15861 1 0.16500 119244.000000
10804 16237 1 0.16500 119244.000000
10804 24193 1 0.16500 119244.000000
10805 15378 1 0.16500 119244.000000
10805 16198 1 0.16500 119244.000000
10806 15380 1 0.16500 119244.000000
10806 15638 1 0.16500 119244.000000
10807 15383 1 0.16500 119244.000000
10807 15899 1 0.16500 119244.000000
10808 15384 1 0.16500 119244.000000
10808 16095 1 0.16500 119244.000000
10809 15385 1 0.16500 119244.000000
10809 16112 1 0.16500 119244.000000
10810 15385 1 0.16500 119244.000000
10810 15803 1 0.16500 119244.000000
10811 15388 1 0.16500 119244.000000
10811 15607 1 0.16500 119244.000000
10812 15390 1 0.16500 119244.000000
10812 16141 1 0.16500 119244.000000
10813 15393 1 0.16500 119244.000000
10813 22945 1 0.16500 119244.000000
10814 20677 1 0.16500 119244.000000
10814 21481 1 0.16500 119244.000000
10815 15398 1 0.16500 119244.000000
10815 16451 1 0.16500 119244.000000
10816 15399 1 0.16500 119244.000000
10816 15691 1 0.16500 119244.000000
10817 15401 1 0.16500 119244.000000
10817 16204 1 0.16500 119244.000000
10818 15401 1 0.16500 119244.000000
10818 15959 1 0.16500 119244.000000
10819 14410 1 0.16500 119244.000000
10819 15403 1 0.16500 119244.000000
10820 15405 1 0.16500 119244.000000
10820 15703 1 0.16500 119244.000000
10821 15409 1 0.16500 119244.000000
10821 24482 1 0.16500 119244.000000
10822 14974 1 0.16500 119244.000000
10822 15409 1 0.16500 119244.000000
10823 15410 1 0.16500 119244.000000
10823 15942 1 0.16500 119244.000000
10824 15410 1 0.16500 119244.000000
10824 15639 1 0.16500 119244.000000
10825 15411 1 0.16500 119244.000000
10825 15624 1 0.16500 119244.000000
10826 15412 1 0.16500 119244.000000
10826 15818 1 0.16500 119244.000000
10827 16145 1 0.16500 119244.000000
10827 22945 1 0.16500 119244.000000
10828 15486 1 0.16500 119244.000000
10828 24205 1 0.16500 119244.000000
10829 15421 1 0.16500 119244.000000
10829 22537 1 0.16500 119244.000000
10830 15424 1 0.16500 119244.000000
10830 16222 1 0.16500 119244.000000
10831 15427 1 0.16500 119244.000000
10831 15776 1 0.16500 119244.000000
10832 15428 1 0.16500 119244.000000
10832 15537 1 0.16500 119244.000000
10833 15430 1 0.16500 119244.000000
10833 16025 1 0.16500 119244.000000
10834 15432 1 0.16500 119244.000000
10834 15574 1 0.16500 119244.000000
10835 11663 1 0.16500 119244.000000
10835 15432 1 0.16500 119244.000000
10836 15434 1 0.16500 119244.000000
10836 22405 1 0.16500 119244.000000
10837 15434 1 0.16500 119244.000000
10837 16212 1 0.16500 119244.000000
10838 15435 1 0.16500 119244.000000
10838 15687 1 0.16500 119244.000000
10839 13294 1 0.16500 119244.000000
10839 15449 1 0.16500 119244.000000
10840 15898 1 0.16500 119244.000000
10840 21505 1 0.16500 119244.000000
10841 19945 1 0.16500 119244.000000
10841 21505 1 0.16500 119244.000000
10842 15437 1 0.16500 119244.000000
10842 15630 1 0.16500 119244.000000
10843 12760 1 0.16500 119244.000000
10843 15437 1 0.16500 119244.000000
10844 15440 1 0.16500 119244.000000
10844 16035 1 0.16500 119244.000000
10845 15441 1 0.16500 119244.000000
10845 15984 1 0.16500 119244.000000
10846 15441 1 0.16500 119244.000000
10846 15916 1 0.16500 119244.000000
10847 15442 1 0.16500 119244.000000
10847 16130 1 0.16500 119244.000000
10848 15444 1 0.16500 119244.000000
10848 16137 1 0.16500 119244.000000
10849 15447 1 0.16500 119244.000000
10849 16194 1 0.16500 119244.000000
10850 15452 1 0.16500 119244.000000
10850 16108 1 0.16500 119244.000000
10851 15452 1 0.16500 119244.000000
10851 15938 1 0.16500 119244.000000
10852 15456 1 0.16500 119244.000000
10852 24477 1 0.16500 119244.000000
10853 15457 1 0.16500 119244.000000
10853 16219 1 0.16500 119244.000000
10854 15458 1 0.16500 119244.000000
10854 15519 1 0.16500 119244.000000
10855 15459 1 0.16500 119244.000000
10855 15523 1 0.16500 119244.000000
10856 15461 1 0.16500 119244.000000
10856 15777 1 0.16500 119244.000000
10857 15461 1 0.16500 119244.000000
10857 15612 1 0.16500 119244.000000
10858 15889 1 0.16500 119244.000000
10858 24211 1 0.16500 119244.000000
10859 15462 1 0.16500 119244.000000
10859 15465 1 0.16500 119244.000000
10860 15463 1 0.16500 119244.000000
10860 15613 1 0.16500 119244.000000
10861 15463 1 0.16500 119244.000000
10861 15887 1 0.16500 119244.000000
10862 13881 1 0.16500 119244.000000
10862 15466 1 0.16500 119244.000000
10863 15468 1 0.16500 119244.000000
10863 15585 1 0.16500 119244.000000
10864 13341 1 0.16500 119244.000000
10864 18517 1 0.16500 119244.000000
10865 15472 1 0.16500 119244.000000
10865 15517 1 0.16500 119244.000000
10866 19297 1 0.16500 119244.000000
10866 19909 1 0.16500 119244.000000
10867 15530 1 0.16500 119244.000000
10867 18517 1 0.16500 119244.000000
10868 15515 1 0.16500 119244.000000
10868 16437 1 0.16500 119244.000000
10869 16246 1 0.16500 119244.000000
10869 16437 1 0.16500 119244.000000
10870 15475 1 0.16500 119244.000000
10870 15516 1 0.16500 119244.000000
10871 15481 1 0.16500 119244.000000
10871 15762 1 0.16500 119244.000000
10872 13443 1 0.16500 119244.000000
10872 16070 1 0.16500 119244.000000
10873 16216 1 0.16500 119244.000000
10873 22633 1 0.16500 119244.000000
10874 15666 1 0.16500 119244.000000
10874 22633 1 0.16500 119244.000000
10875 15482 1 0.16500 119244.000000
10875 15592 1 0.16500 119244.000000
10876 15483 1 0.16500 119244.000000
10876 15549 1 0.16500 119244.000000
10877 15298 1 0.16500 119244.000000
10877 15968 1 0.16500 119244.000000
10878 15488 1 0.16500 119244.000000
10878 15589 1 0.16500 119244.000000
10879 15488 1 0.16500 119244.000000
10879 15788 1 0.16500 119244.000000
10880 15489 1 0.16500 119244.000000
10880 16200 1 0.16500 119244.000000
10881 15490 1 0.16500 119244.000000
10881 16248 1 0.16500 119244.000000
10882 15493 1 0.16500 119244.000000
10882 15501 1 0.16500 119244.000000
10883 15494 1 0.16500 119244.000000
10883 15783 1 0.16500 119244.000000
10884 13889 1 0.16500 119244.000000
10884 15535 1 0.16500 119244.000000
10885 15494 1 0.16500 119244.000000
10885 15806 1 0.16500 119244.000000
10886 15495 1 0.16500 119244.000000
10886 16247 1 0.16500 119244.000000
10887 16133 1 0.16500 119244.000000
10887 19645 1 0.16500 119244.000000
10888 15502 1 0.16500 119244.000000
10888 16182 1 0.16500 119244.000000
10889 15503 1 0.16500 119244.000000
10889 15533 1 0.16500 119244.000000
10890 15504 1 0.16500 119244.000000
10890 15785 1 0.16500 119244.000000
10891 16051 1 0.16500 119244.000000
10891 23257 1 0.16500 119244.000000
10892 15506 1 0.16500 119244.000000
10892 16030 1 0.16500 119244.000000
10893 15506 1 0.16500 119244.000000
10893 15773 1 0.16500 119244.000000
10894 15506 1 0.16500 119244.000000
10894 16202 1 0.16500 119244.000000
10895 15507 1 0.16500 119244.000000
10895 15887 1 0.16500 119244.000000
10896 15510 1 0.16500 119244.000000
10896 16252 1 0.16500 119244.000000
10897 15514 1 0.16500 119244.000000
10897 16127 1 0.16500 119244.000000
10898 15516 1 0.16500 119244.000000
10898 15946 1 0.16500 119244.000000
10899 15516 1 0.16500 119244.000000
10899 16147 1 0.16500 119244.000000
10900 15517 1 0.16500 119244.000000
10900 15615 1 0.16500 119244.000000
10901 15458 1 0.16500 119244.000000
10901 15967 1 0.16500 119244.000000
10902 18757 1 0.16500 119244.000000
10902 22933 1 0.16500 119244.000000
10903 15523 1 0.16500 119244.000000
10903 15548 1 0.16500 119244.000000
10904 15525 1 0.16500 119244.000000
10904 15897 1 0.16500 119244.000000
10905 15525 1 0.16500 119244.000000
10905 15735 1 0.16500 119244.000000
10906 15526 1 0.16500 119244.000000
10906 19837 1 0.16500 119244.000000
10907 15527 1 0.16500 119244.000000
10907 16104 1 0.16500 119244.000000
10908 15528 1 0.16500 119244.000000
10908 15561 1 0.16500 119244.000000
10909 15529 1 0.16500 119244.000000
10909 16140 1 0.16500 119244.000000
10910 15529 1 0.16500 119244.000000
10910 16032 1 0.16500 119244.000000
10911 19489 1 0.16500 119244.000000
10911 22261 1 0.16500 119244.000000
10912 15530 1 0.16500 119244.000000
10912 16230 1 0.16500 119244.000000
10913 11988 1 0.16500 119244.000000
10913 15915 1 0.16500 119244.000000
10914 15533 1 0.16500 119244.000000
10914 16066 1 0.16500 119244.000000
10915 15536 1 0.16500 119244.000000
10915 15755 1 0.16500 119244.000000
10916 15537 1 0.16500 119244.000000
10916 20101 1 0.16500 119244.000000
10917 11794 1 0.16500 119244.000000
10917 15538 1 0.16500 119244.000000
10918 15541 1 0.16500 119244.000000
10918 15902 1 0.16500 119244.000000
10919 15547 1 0.16500 119244.000000
10919 15655 1 0.16500 119244.000000
10920 14161 1 0.16500 119244.000000
10920 15915 1 0.16500 119244.000000
10921 15551 1 0.16500 119244.000000
10921 16123 1 0.16500 119244.000000
10922 15551 1 0.16500 119244.000000
10922 15987 1 0.16500 119244.000000
10923 17753 1 0.16500 119244.000000
10923 21037 1 0.16500 119244.000000
10924 15555 1 0.16500 119244.000000
10924 15811 1 0.16500 119244.000000
10925 15558 1 0.16500 119244.000000
10925 15728 1 0.16500 119244.000000
10926 15720 1 0.16500 119244.000000
10926 24235 1 0.16500 119244.000000
10927 15561 1 0.16500 119244.000000
10927 15740 1 0.16500 119244.000000
10928 15563 1 0.16500 119244.000000
10928 15720 1 0.16500 119244.000000
10929 15563 1 0.16500 119244.000000
10929 16090 1 0.16500 119244.000000
10930 15564 1 0.16500 119244.000000
10930 15744 1 0.16500 119244.000000
10931 15571 1 0.16500 119244.000000
10931 16174 1 0.16500 119244.000000
10932 15575 1 0.16500 119244.000000
10932 16041 1 0.16500 119244.000000
10933 15578 1 0.16500 119244.000000
10933 15876 1 0.16500 119244.000000
10934 15580 1 0.16500 119244.000000
10934 16261 1 0.16500 119244.000000
10935 15585 1 0.16500 119244.000000
10935 15903 1 0.16500 119244.000000
10936 15594 1 0.16500 119244.000000
10936 15750 1 0.16500 119244.000000
10937 15596 1 0.16500 119244.000000
10937 15932 1 0.16500 119244.000000
10938 15597 1 0.16500 119244.000000
10938 16138 1 0.16500 119244.000000
10939 15600 1 0.16500 119244.000000
10939 16251 1 0.16500 119244.000000
10940 15640 1 0.16500 119244.000000
10940 19405 1 0.16500 119244.000000
10941 15601 1 0.16500 119244.000000
10941 15939 1 0.16500 119244.000000
10942 16034 1 0.16500 119244.000000
10942 19129 1 0.16500 119244.000000
10943 15605 1 0.16500 119244.000000
10943 15878 1 0.16500 119244.000000
10944 13719 1 0.16500 119244.000000
10944 15605 1 0.16500 119244.000000
10945 15607 1 0.16500 119244.000000
10945 24292 1 0.16500 119244.000000
10946 15608 1 0.16500 119244.000000
10946 15802 1 0.16500 119244.000000
10947 15609 1 0.16500 119244.000000
10947 16264 1 0.16500 119244.000000
10948 15610 1 0.16500 119244.000000
10948 15878 1 0.16500 119244.000000
10949 19801 1 0.16500 119244.000000
10949 24472 1 0.16500 119244.000000
10950 15730 1 0.16500 119244.000000
10950 19801 1 0.16500 119244.000000
10951 15613 1 0.16500 119244.000000
10951 15678 1 0.16500 119244.000000
10952 15613 1 0.16500 119244.000000
10952 15746 1 0.16500 119244.000000
10953 15614 1 0.16500 119244.000000
10953 16189 1 0.16500 119244.000000
10954 15617 1 0.16500 119244.000000
10954 16017 1 0.16500 119244.000000
10955 15618 1 0.16500 119244.000000
10955 15726 1 0.16500 119244.000000
10956 15620 1 0.16500 119244.000000
10956 15668 1 0.16500 119244.000000
10957 17599 1 0.16500 119244.000000
10957 22537 1 0.16500 119244.000000
10958 15629 1 0.16500 119244.000000
10958 15801 1 0.16500 119244.000000
10959 15631 1 0.16500 119244.000000
10959 16199 1 0.16500 119244.000000
10960 15631 1 0.16500 119244.000000
10960 16090 1 0.16500 119244.000000
10961 15631 1 0.16500 119244.000000
10961 16252 1 0.16500 119244.000000
10962 15632 1 0.16500 119244.000000
10962 15721 1 0.16500 119244.000000
10963 15634 1 0.16500 119244.000000
10963 15811 1 0.16500 119244.000000
10964 15657 1 0.16500 119244.000000
10964 21409 1 0.16500 119244.000000
10965 16093 1 0.16500 119244.000000
10965 21409 1 0.16500 119244.000000
10966 15635 1 0.16500 119244.000000
10966 15755 1 0.16500 119244.000000
10967 15637 1 0.16500 119244.000000
10967 15988 1 0.16500 119244.000000
10968 15638 1 0.16500 119244.000000
10968 15885 1 0.16500 119244.000000
10969 15639 1 0.16500 119244.000000
10969 15729 1 0.16500 119244.000000
10970 15641 1 0.16500 119244.000000
10970 15692 1 0.16500 119244.000000
10971 15642 1 0.16500 119244.000000
10971 15795 1 0.16500 119244.000000
10972 15643 1 0.16500 119244.000000
10972 16055 1 0.16500 119244.000000
10973 15646 1 0.16500 119244.000000
10973 16097 1 0.16500 119244.000000
10974 11723 1 0.16500 119244.000000
10974 16000 1 0.16500 119244.000000
10975 15649 1 0.16500 119244.000000
10975 15887 1 0.16500 119244.000000
10976 15652 1 0.16500 119244.000000
10976 15869 1 0.16500 119244.000000
10977 15655 1 0.16500 119244.000000
10977 15705 1 0.16500 119244.000000
10978 15655 1 0.16500 119244.000000
10978 16114 1 0.16500 119244.000000
10979 15656 1 0.16500 119244.000000
10979 15959 1 0.16500 119244.000000
10980 15741 1 0.16500 119244.000000
10980 15994 1 0.16500 119244.000000
10981 15657 1 0.16500 119244.000000
10981 15994 1 0.16500 119244.000000
10982 15658 1 0.16500 119244.000000
10982 15674 1 0.16500 119244.000000
10983 15662 1 0.16500 119244.000000
10983 15969 1 0.16500 119244.000000
10984 15662 1 0.16500 119244.000000
10984 16088 1 0.16500 119244.000000
10985 15662 1 0.16500 119244.000000
10985 16174 1 0.16500 119244.000000
10986 15663 1 0.16500 119244.000000
10986 16047 1 0.16500 119244.000000
10987 15667 1 0.16500 119244.000000
10987 15901 1 0.16500 119244.000000
10988 16216 1 0.16500 119244.000000
10988 19813 1 0.16500 119244.000000
10989 15668 1 0.16500 119244.000000
10989 16138 1 0.16500 119244.000000
10990 15672 1 0.16500 119244.000000
10990 15979 1 0.16500 119244.000000
10991 16177 1 0.16500 119244.000000
10991 18457 1 0.16500 119244.000000
10992 15685 1 0.16500 119244.000000
10992 16018 1 0.16500 119244.000000
10993 15688 1 0.16500 119244.000000
10993 16168 1 0.16500 119244.000000
10994 15690 1 0.16500 119244.000000
10994 15897 1 0.16500 119244.000000
10995 20929 1 0.16500 119244.000000
10995 21109 1 0.16500 119244.000000
10996 15700 1 0.16500 119244.000000
10996 16276 1 0.16500 119244.000000
10997 15701 1 0.16500 119244.000000
10997 15988 1 0.16500 119244.000000
10998 11627 1 0.16500 119244.000000
10998 15707 1 0.16500 119244.000000
10999 15709 1 0.16500 119244.000000
10999 15779 1 0.16500 119244.000000
11000 15709 1 0.16500 119244.000000
11000 15894 1 0.16500 119244.000000
11001 15710 1 0.16500 119244.000000
11001 16039 1 0.16500 119244.000000
11002 15710 1 0.16500 119244.000000
11002 15968 1 0.16500 119244.000000
11003 15712 1 0.16500 119244.000000
11003 15816 1 0.16500 119244.000000
11004 15712 1 0.16500 119244.000000
11004 15787 1 0.16500 119244.000000
11005 15719 1 0.16500 119244.000000
11005 16071 1 0.16500 119244.000000
11006 13966 1 0.16500 119244.000000
11006 15851 1 0.16500 119244.000000
11007 16158 1 0.16500 119244.000000
11007 24247 1 0.16500 119244.000000
11008 15842 1 0.16500 119244.000000
11008 24247 1 0.16500 119244.000000
11009 20389 1 0.16500 119244.000000
11009 24253 1 0.16500 119244.000000
11010 15733 1 0.16500 119244.000000
11010 16089 1 0.16500 119244.000000
11011 15736 1 0.16500 119244.000000
11011 15979 1 0.16500 119244.000000
11012 15739 1 0.16500 119244.000000
11012 15774 1 0.16500 119244.000000
11013 15740 1 0.16500 119244.000000
11013 16082 1 0.16500 119244.000000
11014 15741 1 0.16500 119244.000000
11014 18853 1 0.16500 119244.000000
11015 15742 1 0.16500 119244.000000
11015 16256 1 0.16500 119244.000000
11016 15743 1 0.16500 119244.000000
11016 16219 1 0.16500 119244.000000
11017 15564 1 0.16500 119244.000000
11017 16128 1 0.16500 119244.000000
11018 15745 1 0.16500 119244.000000
11018 16111 1 0.16500 119244.000000
11019 15745 1 0.16500 119244.000000
11019 16245 1 0.16500 119244.000000
11020 15752 1 0.16500 119244.000000
11020 15839 1 0.16500 119244.000000
11021 15839 1 0.16500 119244.000000
11021 16022 1 0.16500 119244.000000
11022 14783 1 0.16500 119244.000000
11022 15753 1 0.16500 119244.000000
11023 15754 1 0.16500 119244.000000
11023 15838 1 0.16500 119244.000000
11024 15760 1 0.16500 119244.000000
11024 16210 1 0.16500 119244.000000
11025 15760 1 0.16500 119244.000000
11025 15923 1 0.16500 119244.000000
11026 15761 1 0.16500 119244.000000
11026 16047 1 0.16500 119244.000000
11027 15765 1 0.16500 119244.000000
11027 16035 1 0.16500 119244.000000
11028 15767 1 0.16500 119244.000000
11028 15891 1 0.16500 119244.000000
11029 15768 1 0.16500 119244.000000
11029 21541 1 0.16500 119244.000000
11030 15768 1 0.16500 119244.000000
11030 16043 1 0.16500 119244.000000
11031 15769 1 0.16500 119244.000000
11031 16130 1 0.16500 119244.000000
11032 18313 1 0.16500 119244.000000
11032 21673 1 0.16500 119244.000000
11033 15774 1 0.16500 119244.000000
11033 16259 1 0.16500 119244.000000
11034 15782 1 0.16500 119244.000000
11034 15982 1 0.16500 119244.000000
11035 15788 1 0.16500 119244.000000
11035 15902 1 0.16500 119244.000000
11036 15790 1 0.16500 119244.000000
11036 16266 1 0.16500 119244.000000
11037 15792 1 0.16500 119244.000000
11037 15850 1 0.16500 119244.000000
11038 15794 1 0.16500 119244.000000
11038 15849 1 0.16500 119244.000000
11039 15801 1 0.16500 119244.000000
11039 16209 1 0.16500 119244.000000
11040 12920 1 0.16500 119244.000000
11040 15808 1 0.16500 119244.000000
11041 15812 1 0.16500 119244.000000
11041 15995 1 0.16500 119244.000000
11042 15812 1 0.16500 119244.000000
11042 16028 1 0.16500 119244.000000
11043 15817 1 0.16500 119244.000000
11043 21337 1 0.16500 119244.000000
11044 16843 1 0.16500 119244.000000
11044 24286 1 0.16500 119244.000000
11045 15820 1 0.16500 119244.000000
11045 15923 1 0.16500 119244.000000
11046 15823 1 0.16500 119244.000000
11046 16027 1 0.16500 119244.000000
11047 15823 1 0.16500 119244.000000
11047 16206 1 0.16500 119244.000000
11048 15825 1 0.16500 119244.000000
11048 16144 1 0.16500 119244.000000
11049 15826 1 0.16500 119244.000000
11049 19525 1 0.16500 119244.000000
11050 15828 1 0.16500 119244.000000
11050 15877 1 0.16500 119244.000000
11051 15834 1 0.16500 119244.000000
11051 15942 1 0.16500 119244.000000
11052 15840 1 0.16500 119244.000000
11052 24253 1 0.16500 119244.000000
11053 15841 1 0.16500 119244.000000
11053 16098 1 0.16500 119244.000000
11054 14395 1 0.16500 119244.000000
11054 16101 1 0.16500 119244.000000
11055 14395 1 0.16500 119244.000000
11055 16083 1 0.16500 119244.000000
11056 15845 1 0.16500 119244.000000
11056 16192 1 0.16500 119244.000000
11057 15853 1 0.16500 119244.000000
11057 15961 1 0.16500 119244.000000
11058 15855 1 0.16500 119244.000000
11058 16201 1 0.16500 119244.000000
11059 15857 1 0.16500 119244.000000
11059 16239 1 0.16500 119244.000000
11060 15858 1 0.16500 119244.000000
11060 16046 1 0.16500 119244.000000
11061 15858 1 0.16500 119244.000000
11061 15947 1 0.16500 119244.000000
11062 11966 1 0.16500 119244.000000
11062 20329 1 0.16500 119244.000000
11063 15860 1 0.16500 119244.000000
11063 16052 1 0.16500 119244.000000
11064 15865 1 0.16500 119244.000000
11064 16186 1 0.16500 119244.000000
11065 15867 1 0.16500 119244.000000
11065 16109 1 0.16500 119244.000000
11066 15869 1 0.16500 119244.000000
11066 16138 1 0.16500 119244.000000
11067 12530 1 0.16500 119244.000000
11067 16040 1 0.16500 119244.000000
11068 15872 1 0.16500 119244.000000
11068 16234 1 0.16500 119244.000000
11069 16057 1 0.16500 119244.000000
11069 19693 1 0.16500 119244.000000
11070 15874 1 0.16500 119244.000000
11070 16067 1 0.16500 119244.000000
11071 15875 1 0.16500 119244.000000
11071 15905 1 0.16500 119244.000000
11072 15736 1 0.16500 119244.000000
11072 15876 1 0.16500 119244.000000
11073 15876 1 0.16500 119244.000000
11073 16015 1 0.16500 119244.000000
11074 15881 1 0.16500 119244.000000
11074 16006 1 0.16500 119244.000000
11075 15889 1 0.16500 119244.000000
11075 18877 1 0.16500 119244.000000
11076 15888 1 0.16500 119244.000000
11076 16084 1 0.16500 119244.000000
11077 15895 1 0.16500 119244.000000
11077 15909 1 0.16500 119244.000000
11078 11883 1 0.16500 119244.000000
11078 20593 1 0.16500 119244.000000
11079 15905 1 0.16500 119244.000000
11079 16154 1 0.16500 119244.000000
11080 15905 1 0.16500 119244.000000
11080 15912 1 0.16500 119244.000000
11081 15907 1 0.16500 119244.000000
11081 24271 1 0.16500 119244.000000
11082 15911 1 0.16500 119244.000000
11082 16112 1 0.16500 119244.000000
11083 15917 1 0.16500 119244.000000
11083 16018 1 0.16500 119244.000000
11084 15925 1 0.16500 119244.000000
11084 16155 1 0.16500 119244.000000
11085 15927 1 0.16500 119244.000000
11085 16171 1 0.16500 119244.000000
11086 15931 1 0.16500 119244.000000
11086 15972 1 0.16500 119244.000000
11087 15933 1 0.16500 119244.000000
11087 16094 1 0.16500 119244.000000
11088 15938 1 0.16500 119244.000000
11088 16244 1 0.16500 119244.000000
11089 15940 1 0.16500 119244.000000
11089 16172 1 0.16500 119244.000000
11090 12549 1 0.16500 119244.000000
11090 15940 1 0.16500 119244.000000
11091 15941 1 0.16500 119244.000000
11091 16184 1 0.16500 119244.000000
11092 16041 1 0.16500 119244.000000
11092 17795 1 0.16500 119244.000000
11093 15949 1 0.16500 119244.000000
11093 16058 1 0.16500 119244.000000
11094 15963 1 0.16500 119244.000000
11094 16196 1 0.16500 119244.000000
11095 15971 1 0.16500 119244.000000
11095 16133 1 0.16500 119244.000000
11096 15977 1 0.16500 119244.000000
11096 16148 1 0.16500 119244.000000
11097 16133 1 0.16500 119244.000000
11097 24274 1 0.16500 119244.000000
11098 15990 1 0.16500 119244.000000
11098 16022 1 0.16500 119244.000000
11099 16001 1 0.16500 119244.000000
11099 16259 1 0.16500 119244.000000
11100 16002 1 0.16500 119244.000000
11100 16137 1 0.16500 119244.000000
11101 16004 1 0.16500 119244.000000
11101 16183 1 0.16500 119244.000000
11102 16004 1 0.16500 119244.000000
11102 16064 1 0.16500 119244.000000
11103 16005 1 0.16500 119244.000000
11103 16036 1 0.16500 119244.000000
11104 16006 1 0.16500 119244.000000
11104 16024 1 0.16500 119244.000000
11105 16009 1 0.16500 119244.000000
11105 16246 1 0.16500 119244.000000
11106 16010 1 0.16500 119244.000000
11106 16045 1 0.16500 119244.000000
11107 16012 1 0.16500 119244.000000
11107 16020 1 0.16500 119244.000000
11108 16019 1 0.16500 119244.000000
11108 16206 1 0.16500 119244.000000
11109 16026 1 0.16500 119244.000000
11109 16079 1 0.16500 119244.000000
11110 16028 1 0.16500 119244.000000
11110 19285 1 0.16500 119244.000000
11111 16035 1 0.16500 119244.000000
11111 16214 1 0.16500 119244.000000
11112 16040 1 0.16500 119244.000000
11112 16236 1 0.16500 119244.000000
11113 16041 1 0.16500 119244.000000
11113 16136 1 0.16500 119244.000000
11114 16042 1 0.16500 119244.000000
11114 16132 1 0.16500 119244.000000
11115 16050 1 0.16500 119244.000000
11115 16101 1 0.16500 119244.000000
11116 16218 1 0.16500 119244.000000
11116 19525 1 0.16500 119244.000000
11117 16054 1 0.16500 119244.000000
11117 16223 1 0.16500 119244.000000
11118 16059 1 0.16500 119244.000000
11118 16241 1 0.16500 119244.000000
11119 16063 1 0.16500 119244.000000
11119 16275 1 0.16500 119244.000000
11120 16064 1 0.16500 119244.000000
11120 16170 1 0.16500 119244.000000
11121 16067 1 0.16500 119244.000000
11121 16195 1 0.16500 119244.000000
11122 16083 1 0.16500 119244.000000
11122 16166 1 0.16500 119244.000000
11123 16086 1 0.16500 119244.000000
11123 16150 1 0.16500 119244.000000
11124 16100 1 0.16500 119244.000000
11124 16183 1 0.16500 119244.000000
11125 16176 1 0.16500 119244.000000
11125 20857 1 0.16500 119244.000000
11126 16120 1 0.16500 119244.000000
11126 16164 1 0.16500 119244.000000
11127 16124 1 0.16500 119244.000000
11127 16142 1 0.16500 119244.000000
11128 16126 1 0.16500 119244.000000
11128 16217 1 0.16500 119244.000000
11129 16128 1 0.16500 119244.000000
11129 16162 1 0.16500 119244.000000
11130 16135 1 0.16500 119244.000000
11130 16155 1 0.16500 119244.000000
11131 16145 1 0.16500 119244.000000
11131 16253 1 0.16500 119244.000000
11132 16157 1 0.16500 119244.000000
11132 16253 1 0.16500 119244.000000
11133 16175 1 0.16500 119244.000000
11133 16232 1 0.16500 119244.000000
11134 16186 1 0.16500 119244.000000
11134 16261 1 0.16500 119244.000000
11135 16188 1 0.16500 119244.000000
11135 16245 1 0.16500 119244.000000
11136 16215 1 0.16500 119244.000000
11136 16272 1 0.16500 119244.000000
11137 16220 1 0.16500 119244.000000
11137 20725 1 0.16500 119244.000000
11138 20029 1 0.16500 119244.000000
11138 23707 1 0.16500 119244.000000
11139 21313 1 0.16500 119244.000000
11139 23863 1 0.16500 119244.000000
11140 19045 1 0.16500 119244.000000
11140 20785 1 0.16500 119244.000000
11141 21289 1 0.16500 119244.000000
11141 24277 1 0.16500 119244.000000
11142 23941 1 0.16500 119244.000000
11142 24115 1 0.16500 119244.000000
11143 18553 1 0.16500 119244.000000
11143 24058 1 0.16500 119244.000000
11144 20173 1 0.16500 119244.000000
11144 23377 1 0.16500 119244.000000
11145 22645 1 0.16500 119244.000000
11145 24088 1 0.16500 119244.000000
11146 22681 1 0.16500 119244.000000
11146 22705 1 0.16500 119244.000000
11147 18361 1 0.16500 119244.000000
11147 24025 1 0.16500 119244.000000
11148 18745 1 0.16500 119244.000000
11148 20329 1 0.16500 119244.000000
11149 18661 1 0.16500 119244.000000
11149 20725 1 0.16500 119244.000000
11150 21493 1 0.16500 119244.000000
11150 23872 1 0.16500 119244.000000
11151 13254 1 0.16500 119244.000000
11151 24226 1 0.16500 119244.000000
11152 11417 1 0.16500 119244.000000
11152 19237 1 0.16500 119244.000000
11153 11643 1 0.16500 119244.000000
11153 19273 1 0.16500 119244.000000
11154 14333 1 0.16500 119244.000000
11154 20317 1 0.16500 119244.000000
11155 15527 1 0.16500 119244.000000
11155 20737 1 0.16500 119244.000000
11156 15499 1 0.16500 119244.000000
11156 24274 1 0.16500 119244.000000
11157 14511 1 0.16500 119244.000000
11157 22177 1 0.16500 119244.000000
11158 12942 1 0.16500 119244.000000
11158 21181 1 0.16500 119244.000000
11159 11282 1 0.16500 119244.000000
11159 24124 1 0.16500 119244.000000
11160 15640 1 0.16500 119244.000000
11160 24199 1 0.16500 119244.000000
11161 11595 1 0.16500 119244.000000
11161 12667 1 0.16500 119244.000000
11162 14678 1 0.16500 119244.000000
11162 22201 1 0.16500 119244.000000
11163 15652 1 0.16500 119244.000000
11163 19033 1 0.16500 119244.000000
11164 12533 1 0.16500 119244.000000
11164 24136 1 0.16500 119244.000000
11165 12230 1 0.16500 119244.000000
11165 24013 1 0.16500 119244.000000
11166 12323 1 0.16500 119244.000000
11166 23125 1 0.16500 119244.000000
11167 11493 1 0.16500 119244.000000
11167 23623 1 0.16500 119244.000000
11168 15622 1 0.16500 119244.000000
11168 24289 1 0.16500 119244.000000
11169 14719 1 0.16500 119244.000000
11169 23908 1 0.16500 119244.000000
11170 11405 1 0.16500 119244.000000
11170 23149 1 0.16500 119244.000000
11171 12609 1 0.16500 119244.000000
11171 23449 1 0.16500 119244.000000
11172 15975 1 0.16500 119244.000000
11172 24229 1 0.16500 119244.000000
11173 14597 1 0.16500 119244.000000
11173 21205 1 0.16500 119244.000000
11174 14017 1 0.16500 119244.000000
11174 21421 1 0.16500 119244.000000
11175 14132 1 0.16500 119244.000000
11175 15238 1 0.16500 119244.000000
11176 13900 1 0.16500 119244.000000
11176 23755 1 0.16500 119244.000000
11177 14859 1 0.16500 119244.000000
11177 24016 1 0.16500 119244.000000
11178 12897 1 0.16500 119244.000000
11178 23317 1 0.16500 119244.000000
11179 14506 1 0.16500 119244.000000
11179 21277 1 0.16500 119244.000000
11180 16231 1 0.16500 119244.000000
11180 18433 1 0.16500 119244.000000
11181 11321 1 0.16500 119244.000000
11181 23929 1 0.16500 119244.000000
11182 12667 1 0.16500 119244.000000
11182 22141 1 0.16500 119244.000000
11183 13253 1 0.16500 119244.000000
11183 21673 1 0.16500 119244.000000
11184 16007 1 0.16500 119244.000000
11184 23647 1 0.16500 119244.000000
11185 14191 1 0.16500 119244.000000
11185 20545 1 0.16500 119244.000000
11186 14458 1 0.16500 119244.000000
11186 23221 1 0.16500 119244.000000
11187 12582 1 0.16500 119244.000000
11187 21913 1 0.16500 119244.000000
11188 13671 1 0.16500 119244.000000
11188 16095 1 0.16500 119244.000000
11189 15062 1 0.16500 119244.000000
11189 19453 1 0.16500 119244.000000
11190 15222 1 0.16500 119244.000000
11190 24121 1 0.16500 119244.000000
11191 11254 1 0.16500 119244.000000
11191 23950 1 0.16500 119244.000000
11192 14628 1 0.16500 119244.000000
11192 23812 1 0.16500 119244.000000
11193 12877 1 0.16500 119244.000000
11193 18337 1 0.16500 119244.000000
11194 11975 1 0.16500 119244.000000
11194 23185 1 0.16500 119244.000000
11195 14065 1 0.16500 119244.000000
11195 23365 1 0.16500 119244.000000
11196 11780 1 0.16500 119244.000000
11196 20245 1 0.16500 119244.000000
11197 14579 1 0.16500 119244.000000
11197 18925 1 0.16500 119244.000000
11198 16263 1 0.16500 119244.000000
11198 21301 1 0.16500 119244.000000
11199 14524 1 0.16500 119244.000000
11199 23569 1 0.16500 119244.000000
11200 15346 1 0.16500 119244.000000
11200 24163 1 0.16500 119244.000000
11201 13657 1 0.16500 119244.000000
11201 19585 1 0.16500 119244.000000
11202 15104 1 0.16500 119244.000000
11202 24001 1 0.16500 119244.000000
11203 12501 1 0.16500 119244.000000
11203 24073 1 0.16500 119244.000000
11204 12833 1 0.16500 119244.000000
11204 22033 1 0.16500 119244.000000
11205 12791 1 0.16500 119244.000000
11205 22537 1 0.16500 119244.000000
11206 15409 1 0.16500 119244.000000
11206 20185 1 0.16500 119244.000000
11207 11986 1 0.16500 119244.000000
11207 23485 1 0.16500 119244.000000
11208 14831 1 0.16500 119244.000000
11208 23797 1 0.16500 119244.000000
11209 13266 1 0.16500 119244.000000
11209 21637 1 0.16500 119244.000000
11210 13575 1 0.16500 119244.000000
11210 21061 1 0.16500 119244.000000
11211 11266 1 0.16500 119244.000000
11211 23473 1 0.16500 119244.000000
11212 13639 1 0.16500 119244.000000
11212 20701 1 0.16500 119244.000000
11213 16151 1 0.16500 119244.000000
11213 22813 1 0.16500 119244.000000
11214 12978 1 0.16500 119244.000000
11214 19969 1 0.16500 119244.000000
11215 16000 1 0.16500 119244.000000
11215 22549 1 0.16500 119244.000000
11216 16095 1 0.16500 119244.000000
11216 18493 1 0.16500 119244.000000
11217 14663 1 0.16500 119244.000000
11217 23089 1 0.16500 119244.000000
11218 15816 1 0.16500 119244.000000
11218 23815 1 0.16500 119244.000000
11219 15238 1 0.16500 119244.000000
11219 22225 1 0.16500 119244.000000
11220 16017 1 0.16500 119244.000000
11220 18865 1 0.16500 119244.000000
11221 15316 1 0.16500 119244.000000
11221 22993 1 0.16500 119244.000000
11222 15034 1 0.16500 119244.000000
11222 19933 1 0.16500 119244.000000
11223 13988 1 0.16500 119244.000000
11223 20353 1 0.16500 119244.000000
11224 12257 1 0.16500 119244.000000
11224 24010 1 0.16500 119244.000000
11225 14047 1 0.16500 119244.000000
11225 23932 1 0.16500 119244.000000
11226 14201 1 0.16500 119244.000000
11226 18937 1 0.16500 119244.000000
11227 13210 1 0.16500 119244.000000
11227 14617 1 0.16500 119244.000000
11228 16072 1 0.16500 119244.000000
11228 22825 1 0.16500 119244.000000
11229 15647 1 0.16500 119244.000000
11229 22465 1 0.16500 119244.000000
11230 11367 1 0.16500 119244.000000
11230 24022 1 0.16500 119244.000000
11231 12708 1 0.16500 119244.000000
11231 21649 1 0.16500 119244.000000
11232 13916 1 0.16500 119244.000000
11232 23842 1 0.16500 119244.000000
11233 13254 1 0.16500 119244.000000
11233 23848 1 0.16500 119244.000000
11234 14810 1 0.16500 119244.000000
11234 24295 1 0.16500 119244.000000
11235 15294 1 0.16500 119244.000000
11235 20569 1 0.16500 119244.000000
11236 13053 1 0.16500 119244.000000
11236 23389 1 0.16500 119244.000000
11237 15730 1 0.16500 119244.000000
11237 23983 1 0.16500 119244.000000
11238 15154 1 0.16500 119244.000000
11238 20197 1 0.16500 119244.000000
11239 13210 1 0.16500 119244.000000
11239 20365 1 0.16500 119244.000000
11240 13744 1 0.16500 119244.000000
11240 21841 1 0.16500 119244.000000
11241 13993 1 0.16500 119244.000000
11241 19429 1 0.16500 119244.000000
11242 14244 1 0.16500 119244.000000
11242 21073 1 0.16500 119244.000000
11243 15359 1 0.16500 119244.000000
11243 18589 1 0.16500 119244.000000
11244 16229 1 0.16500 119244.000000
11244 23869 1 0.16500 119244.000000
11245 14331 1 0.16500 119244.000000
11245 24190 1 0.16500 119244.000000
11246 15562 1 0.16500 119244.000000
11246 22837 1 0.16500 119244.000000
11247 14804 1 0.16500 119244.000000
11247 21697 1 0.16500 119244.000000
11248 13702 1 0.16500 119244.000000
11248 23737 1 0.16500 119244.000000
11249 13166 1 0.16500 119244.000000
11249 20749 1 0.16500 119244.000000
11250 13479 1 0.16500 119244.000000
11250 19405 1 0.16500 119244.000000
11251 15249 1 0.16500 119244.000000
11251 23677 1 0.16500 119244.000000
16280 16281 1 0.10860 301825.392000
16281 16282 1 0.13986 296436.400000
16281 16290 1 0.13986 296436.400000
16282 16283 1 0.18850 35430.112000
16282 16284 1 0.13986 296436.400000
16283 16292 1 0.16500 119244.000000
16284 16285 1 0.10860 301825.392000
16284 16286 1 0.13986 296436.400000
16286 16287 1 0.10860 301825.392000
16286 16288 1 0.13986 296436.400000
16288 16289 1 0.10860 301825.392000
16288 16290 1 0.13986 296436.400000
16290 16291 1 0.10860 301825.392000
16292 16293 1 0.09450 207108.000000
16294 16295 1 0.10860 301825.392000
16295 16296 1 0.13986 296436.400000
16295 16304 1 0.13986 296436.400000
16296 16297 1 0.18850 35430.112000
16296 16298 1 0.13986 296436.400000
16297 16306 1 0.16500 119244.000000
16298 16299 1 0.10860 301825.392000
16298 16300 1 0.13986 296436.400000
16300 16301 1 0.10860 301825.392000
16300 16302 1 0.13986 296436.400000
16302 16303 1 0.10860 301825.392000
16302 16304 1 0.13986 296436.400000
16304 16305 1 0.10860 301825.392000
16306 16307 1 0.09450 207108.000000
16308 16309 1 0.10860 301825.392000
16309 16310 1 0.13986 296436.400000
16309 16318 1 0.13986 296436.400000
16310 16311 1 0.18850 35430.112000
16310 16312 1 0.13986 296436.400000
16311 16320 1 0.16500 119244.000000
16312 16313 1 0.10860 301825.392000
16312 16314 1 0.13986 296436.400000
16314 16315 1 0.10860 301825.392000
16314 16316 1 0.13986 296436.400000
16316 16317 1 0.10860 301825.392000
16316 16318 1 0.13986 296436.400000
16318 16319 1 0.10860 301825.392000
16320 16321 1 0.09450 207108.000000
16322 16323 1 0.10860 301825.392000
16323 16324 1 0.13986 296436.400000
16323 16332 1 0.13986 296436.400000
16324 16325 1 0.18850 35430.112000
16324 16326 1 0.13986 296436.400000
16325 16334 1 0.16500 119244.000000
16326 16327 1 0.10860 301825.392000
16326 16328 1 0.13986 296436.400000
16328 16329 1 0.10860 301825.392000
16328 16330 1 0.13986 296436.400000
16330 16331 1 0.10860 301825.392000
16330 16332 1 0.13986 296436.400000
16332 16333 1 0.10860 301825.392000
16334 16335 1 0.09450 207108.000000
16336 16337 1 0.10860 301825.392000
16337 16338 1 0.13986 296436.400000
16337 16346 1 0.13986 296436.400000
16338 16339 1 0.18850 35430.112000
16338 16340 1 0.13986 296436.400000
16339 16348 1 0.16500 119244.000000
16340 16341 1 0.10860 301825.392000
16340 16342 1 0.13986 296436.400000
16342 16343 1 0.10860 301825.392000
16342 16344 1 0.13986 296436.400000
16344 16345 1 0.10860 301825.392000
16344 16346 1 0.13986 296436.400000
16346 16347 1 0.10860 301825.392000
16348 16349 1 0.09450 207108.000000
16350 16351 1 0.10860 301825.392000
16351 16352 1 0.13986 296436.400000
16351 16360 1 0.13986 296436.400000
16352 16353 1 0.18850 35430.112000
16352 16354 1 0.13986 296436.400000
16353 16362 1 0.16500 119244.000000
16354 16355 1 0.10860 301825.392000
16354 16356 1 0.13986 296436.400000
16356 16357 1 0.10860 301825.392000
16356 16358 1 0.13986 296436.400000
16358 16359 1 0.10860 301825.392000
16358 16360 1 0.13986 296436.400000
16360 16361 1 0.10860 301825.392000
16362 16363 1 0.09450 207108.000000
16364 16365 1 0.10860 301825.392000
16365 16366 1 0.13986 296436.400000
16365 16374 1 0.13986 296436.400000
16366 16367 1 0.18850 35430.112000
16366 16368 1 0.13986 296436.400000
16367 16376 1 0.16500 119244.000000
16368 16369 1 0.10860 301825.392000
16368 16370 1 0.13986 296436.400000
16370 16371 1 0.10860 301825.392000
16370 16372 1 0.13986 296436.400000
16372 16373 1 0.10860 301825.392000
16372 16374 1 0.13986 296436.400000
16374 16375 1 0.10860 301825.392000
16376 16377 1 0.09450 207108.000000
16378 16379 1 0.10860 301825.392000
16379 16380 1 0.13986 296436.400000
16379 16388 1 0.13986 296436.400000
16380 16381 1 0.18850 35430.112000
16380 16382 1 0.13986 296436.400000
16381 16390 1 0.16500 119244.000000
16382 16383 1 0.10860 301825.392000
16382 16384 1 0.13986 296436.400000
16384 16385 1 0.10860 301825.392000
16384 16386 1 0.13986 296436.400000
16386 16387 1 0.10860 301825.392000
16386 16388 1 0.13986 296436.400000
16388 16389 1 0.10860 301825.392000
16390 16391 1 0.09450 207108.000000
16392 16393 1 0.10860 301825.392000
16393 16394 1 0.13986 296436.400000
16393 16402 1 0.13986 296436.400000
16394 16395 1 0.18850 35430.112000
16394 16396 1 0.13986 296436.400000
16395 16404 1 0.16500 119244.000000
16396 16397 1 0.10860 301825.392000
16396 16398 1 0.13986 296436.400000
16398 16399 1 0.10860 301825.392000
16398 16400 1 0.13986 296436.400000
16400 16401 1 0.10860 301825.392000
16400 16402 1 0.13986 296436.400000
16402 16403 1 0.10860 301825.392000
16404 16405 1 0.09450 207108.000000
16406 16407 1 0.10860 301825.392000
16407 16408 1 0.13986 296436.400000
16407 16416 1 0.13986 296436.400000
16408 16409 1 0.18850 35430.112000
16408 16410 1 0.13986 296436.400000
16409 16418 1 0.16500 119244.000000
16410 16411 1 0.10860 301825.392000
16410 16412 1 0.13986 296436.400000
16412 16413 1 0.10860 301825.392000
16412 16414 1 0.13986 296436.400000
16414 16415 1 0.10860 301825.392000
16414 16416 1 0.13986 296436.400000
16416 16417 1 0.10860 301825.392000
16418 16419 1 0.09450 207108.000000
16420 16421 1 0.10860 301825.392000
16421 16422 1 0.13986 296436.400000
16421 16430 1 0.13986 296436.400000
16422 16423 1 0.18850 35430.112000
16422 16424 1 0.13986 296436.400000
16423 16432 1 0.16500 119244.000000
16424 16425 1 0.10860 301825.392000
16424 16426 1 0.13986 296436.400000
16426 16427 1 0.10860 301825.392000
16426 16428 1 0.13986 296436.400000
16428 16429 1 0.10860 301825.392000
16428 16430 1 0.13986 296436.400000
16430 16431 1 0.10860 301825.392000
16432 16433 1 0.09450 207108.000000
16434 16435 1 0.10860 301825.392000
16435 16436 1 0.13986 296436.400000
16435 16444 1 0.13986 296436.400000
16436 16437 1 0.18850 35430.112000
16436 16438 1 0.13986 296436.400000
16437 16446 1 0.16500 119244.000000
16438 16439 1 0.10860 301825.392000
16438 16440 1 0.13986 296436.400000
16440 16441 1 0.10860 301825.392000
16440 16442 1 0.13986 296436.400000
16442 16443 1 0.10860 301825.392000
16442 16444 1 0.13986 296436.400000
16444 16445 1 0.10860 301825.392000
16446 16447 1 0.09450 207108.000000
16448 16449 1 0.10860 301825.392000
16449 16450 1 0.13986 296436.400000
16449 16458 1 0.13986 296436.400000
16450 16451 1 0.18850 35430.112000
16450 16452 1 0.13986 296436.400000
16451 16460 1 0.16500 119244.000000
16452 16453 1 0.10860 301825.392000
16452 16454 1 0.13986 296436.400000
16454 16455 1 0.10860 301825.392000
16454 16456 1 0.13986 296436.400000
16456 16457 1 0.10860 301825.392000
16456 16458 1 0.13986 296436.400000
16458 16459 1 0.10860 301825.392000
16460 16461 1 0.09450 207108.000000
16462 16463 1 0.10860 301825.392000
16463 16464 1 0.13986 296436.400000
16463 16472 1 0.13986 296436.400000
16464 16465 1 0.18850 35430.112000
16464 16466 1 0.13986 296436.400000
16465 16474 1 0.16500 119244.000000
16466 16467 1 0.10860 301825.392000
16466 16468 1 0.13986 296436.400000
16468 16469 1 0.10860 301825.392000
16468 16470 1 0.13986 296436.400000
16470 16471 1 0.10860 301825.392000
16470 16472 1 0.13986 296436.400000
16472 16473 1 0.10860 301825.392000
16474 16475 1 0.09450 207108.000000
16476 16477 1 0.10860 301825.392000
16477 16478 1 0.13986 296436.400000
16477 16486 1 0.13986 296436.400000
16478 16479 1 0.18850 35430.112000
16478 16480 1 0.13986 296436.400000
16479 16488 1 0.16500 119244.000000
16480 16481 1 0.10860 301825.392000
16480 16482 1 0.13986 296436.400000
16482 16483 1 0.10860 301825.392000
16482 16484 1 0.13986 296436.400000
16484 16485 1 0.10860 301825.392000
16484 16486 1 0.13986 296436.400000
16486 16487 1 0.10860 301825.392000
16488 16489 1 0.09450 207108.000000
16490 16491 1 0.10860 301825.392000
16491 16492 1 0.13986 296436.400000
16491 16500 1 0.13986 296436.400000
16492 16493 1 0.18850 35430.112000
16492 16494 1 0.13986 296436.400000
16493 16502 1 0.16500 119244.000000
16494 16495 1 0.10860 301825.392000
16494 16496 1 0.13986 296436.400000
16496 16497 1 0.10860 301825.392000
16496 16498 1 0.13986 296436.400000
16498 16499 1 0.10860 301825.392000
16498 16500 1 0.13986 296436.400000
16500 16501 1 0.10860 301825.392000
16502 16503 1 0.09450 207108.000000
16504 16505 1 0.10860 301825.392000
16505 16506 1 0.13986 296436.400000
16505 16514 1 0.13986 296436.400000
16506 16507 1 0.18850 35430.112000
16506 16508 1 0.13986 296436.400000
16507 16516 1 0.16500 119244.000000
16508 16509 1 0.10860 301825.392000
16508 16510 1 0.13986 296436.400000
16510 16511 1 0.10860 301825.392000
16510 16512 1 0.13986 296436.400000
16512 16513 1 0.10860 301825.392000
16512 16514 1 0.13986 296436.400000
16514 16515 1 0.10860 301825.392000
16516 16517 1 0.09450 207108.000000
16518 16519 1 0.10860 301825.392000
16519 16520 1 0.13986 296436.400000
16519 16528 1 0.13986 296436.400000
16520 16521 1 0.18850 35430.112000
16520 16522 1 0.13986 296436.400000
16521 16530 1 0.16500 119244.000000
16522 16523 1 0.10860 301825.392000
16522 16524 1 0.13986 296436.400000
16524 16525 1 0.10860 301825.392000
16524 16526 1 0.13986 296436.400000
16526 16527 1 0.10860 301825.392000
16526 16528 1 0.13986 296436.400000
16528 16529 1 0.10860 301825.392000
16530 16531 1 0.09450 207108.000000
16532 16533 1 0.10860 301825.392000
16533 16534 1 0.13986 296436.400000
16533 16542 1 0.13986 296436.400000
16534 16535 1 0.18850 35430.112000
16534 16536 1 0.13986 296436.400000
16535 16544 1 0.16500 119244.000000
16536 16537 1 0.10860 301825.392000
16536 16538 1 0.13986 296436.400000
16538 16539 1 0.10860 301825.392000
16538 16540 1 0.13986 296436.400000
16540 16541 1 0.10860 301825.392000
16540 16542 1 0.13986 296436.400000
16542 16543 1 0.10860 301825.392000
16544 16545 1 0.09450 207108.000000
16546 16547 1 0.10860 301825.392000
16547 16548 1 0.13986 296436.400000
16547 16556 1 0.13986 296436.400000
16548 16549 1 0.18850 35430.112000
16548 16550 1 0.13986 296436.400000
16549 16558 1 0.16500 119244.000000
16550 16551 1 0.10860 301825.392000
16550 16552 1 0.13986 296436.400000
16552 16553 1 0.10860 301825.392000
16552 16554 1 0.13986 296436.400000
16554 16555 1 0.10860 301825.392000
16554 16556 1 0.13986 296436.400000
16556 16557 1 0.10860 301825.392000
16558 16559 1 0.09450 207108.000000
16560 16561 1 0.10860 301825.392000
16561 16562 1 0.13986 296436.400000
16561 16570 1 0.13986 296436.400000
16562 16563 1 0.18850 35430.112000
16562 16564 1 0.13986 296436.400000
16563 16572 1 0.16500 119244.000000
16564 16565 1 0.10860 301825.392000
16564 16566 1 0.13986 296436.400000
16566 16567 1 0.10860 301825.392000
16566 16568 1 0.13986 296436.400000
16568 16569 1 0.10860 301825.392000
16568 16570 1 0.13986 296436.400000
16570 16571 1 0.10860 301825.392000
16572 16573 1 0.09450 207108.000000
16574 16575 1 0.10860 301825.392000
16575 16576 1 0.13986 296436.400000
16575 16584 1 0.13986 296436.400000
16576 16577 1 0.18850 35430.112000
16576 16578 1 0.13986 296436.400000
16577 16586 1 0.16500 119244.000000
16578 16579 1 0.10860 301825.392000
16578 16580 1 0.13986 296436.400000
16580 16581 1 0.10860 301825.392000
16580 16582 1 0.13986 296436.400000
16582 16583 1 0.10860 301825.392000
16582 16584 1 0.13986 296436.400000
16584 16585 1 0.10860 301825.392000
16586 16587 1 0.09450 207108.000000
16588 16589 1 0.10860 301825.392000
16589 16590 1 0.13986 296436.400000
16589 16598 1 0.13986 296436.400000
16590 16591 1 0.18850 35430.112000
16590 16592 1 0.13986 296436.400000
16591 16600 1 0.16500 119244.000000
16592 16593 1 0.10860 301825.392000
16592 16594 1 0.13986 296436.400000
16594 16595 1 0.10860 301825.392000
16594 16596 1 0.13986 296436.400000
16596 16597 1 0.10860 301825.392000
16596 16598 1 0.13986 296436.400000
16598 16599 1 0.10860 301825.392000
16600 16601 1 0.09450 207108.000000
16602 16603 1 0.10860 301825.392000
16603 16604 1 0.13986 296436.400000
16603 16612 1 0.13986 296436.400000
16604 16605 1 0.18850 35430.112000
16604 16606 1 0.13986 296436.400000
16605 16614 1 0.16500 119244.000000
16606 16607 1 0.10860 301825.392000
16606 16608 1 0.13986 296436.400000
16608 16609 1 0.10860 301825.392000
16608 16610 1 0.13986 296436.400000
16610 16611 1 0.10860 301825.392000
16610 16612 1 0.13986 296436.400000
16612 16613 1 0.10860 301825.392000
16614 16615 1 0.09450 207108.000000
16616 16617 1 0.10860 301825.392000
16617 16618 1 0.13986 296436.400000
16617 16626 1 0.13986 296436.400000
16618 16619 1 0.18850 35430.112000
16618 16620 1 0.13986 296436.400000
16619 16628 1 0.16500 119244.000000
16620 16621 1 0.10860 301825.392000
16620 16622 1 0.13986 296436.400000
16622 16623 1 0.10860 301825.392000
16622 16624 1 0.13986 296436.400000
16624 16625 1 0.10860 301825.392000
16624 16626 1 0.13986 296436.400000
16626 16627 1 0.10860 301825.392000
16628 16629 1 0.09450 207108.000000
16630 16631 1 0.10860 301825.392000
16631 16632 1 0.13986 296436.400000
16631 16640 1 0.13986 296436.400000
16632 16633 1 0.18850 35430.112000
16632 16634 1 0.13986 296436.400000
16633 16642 1 0.16500 119244.000000
16634 16635 1 0.10860 301825.392000
16634 16636 1 0.13986 296436.400000
16636 16637 1 0.10860 301825.392000
16636 16638 1 0.13986 296436.400000
16638 16639 1 0.10860 301825.392000
16638 16640 1 0.13986 296436.400000
16640 16641 1 0.10860 301825.392000
16642 16643 1 0.09450 207108.000000
16644 16645 1 0.10860 301825.392000
16645 16646 1 0.13986 296436.400000
16645 16654 1 0.13986 296436.400000
16646 16647 1 0.18850 35430.112000
16646 16648 1 0.13986 296436.400000
16647 16656 1 0.16500 119244.000000
16648 16649 1 0.10860 301825.392000
16648 16650 1 0.13986 296436.400000
16650 16651 1 0.10860 301825.392000
16650 16652 1 0.13986 296436.400000
16652 16653 1 0.10860 301825.392000
16652 16654 1 0.13986 296436.400000
16654 16655 1 0.10860 301825.392000
16656 16657 1 0.09450 207108.000000
16658 16659 1 0.10860 301825.392000
16659 16660 1 0.13986 296436.400000
16659 16668 1 0.13986 296436.400000
16660 16661 1 0.18850 35430.112000
16660 16662 1 0.13986 296436.400000
16661 16670 1 0.16500 119244.000000
16662 16663 1 0.10860 301825.392000
16662 16664 1 0.13986 296436.400000
16664 16665 1 0.10860 301825.392000
16664 16666 1 0.13986 296436.400000
16666 16667 1 0.10860 301825.392000
16666 16668 1 0.13986 296436.400000
16668 16669 1 0.10860 301825.392000
16670 16671 1 0.09450 207108.000000
16672 16673 1 0.10860 301825.392000
16673 16674 1 0.13986 296436.400000
16673 16682 1 0.13986 296436.400000
16674 16675 1 0.18850 35430.112000
16674 16676 1 0.13986 296436.400000
16675 16684 1 0.16500 119244.000000
16676 16677 1 0.10860 301825.392000
16676 16678 1 0.13986 296436.400000
16678 16679 1 0.10860 301825.392000
16678 16680 1 0.13986 296436.400000
16680 16681 1 0.10860 301825.392000
16680 16682 1 0.13986 296436.400000
16682 16683 1 0.10860 301825.392000
16684 16685 1 0.09450 207108.000000
16686 16687 1 0.10860 301825.392000
16687 16688 1 0.13986 296436.400000
16687 16696 1 0.13986 296436.400000
16688 16689 1 0.18850 35430.112000
16688 16690 1 0.13986 296436.400000
16689 16698 1 0.16500 119244.000000
16690 16691 1 0.10860 301825.392000
16690 16692 1 0.13986 296436.400000
16692 16693 1 0.10860 301825.392000
16692 16694 1 0.13986 296436.400000
16694 16695 1 0.10860 301825.392000
16694 16696 1 0.13986 296436.400000
16696 16697 1 0.10860 301825.392000
16698 16699 1 0.09450 207108.000000
16700 16701 1 0.10860 301825.392000
16701 16702 1 0.13986 296436.400000
16701 16710 1 0.13986 296436.400000
16702 16703 1 0.18850 35430.112000
16702 16704 1 0.13986 296436.400000
16703 16712 1 0.16500 119244.000000
16704 16705 1 0.10860 301825.392000
16704 16706 1 0.13986 296436.400000
16706 16707 1 0.10860 301825.392000
16706 16708 1 0.13986 296436.400000
16708 16709 1 0.10860 301825.392000
16708 16710 1 0.13986 296436.400000
16710 16711 1 0.10860 301825.392000
16712 16713 1 0.09450 207108.000000
16714 16715 1 0.10860 301825.392000
16715 16716 1 0.13986 296436.400000
16715 16724 1 0.13986 296436.400000
16716 16717 1 0.18850 35430.112000
16716 16718 1 0.13986 296436.400000
16717 16726 1 0.16500 119244.000000
16718 16719 1 0.10860 301825.392000
16718 16720 1 0.13986 296436.400000
16720 16721 1 0.10860 301825.392000
16720 16722 1 0.13986 296436.400000
16722 16723 1 0.10860 301825.392000
16722 16724 1 0.13986 296436.400000
16724 16725 1 0.10860 301825.392000
16726 16727 1 0.09450 207108.000000
16728 16729 1 0.10860 301825.392000
16729 16730 1 0.13986 296436.400000
16729 16738 1 0.13986 296436.400000
16730 16731 1 0.18850 35430.112000
16730 16732 1 0.13986 296436.400000
16731 16740 1 0.16500 119244.000000
16732 16733 1 0.10860 301825.392000
16732 16734 1 0.13986 296436.400000
16734 16735 1 0.10860 301825.392000
16734 16736 1 0.13986 296436.400000
16736 16737 1 0.10860 301825.392000
16736 16738 1 0.13986 296436.400000
16738 16739 1 0.10860 301825.392000
16740 16741 1 0.09450 207108.000000
16742 16743 1 0.10860 301825.392000
16743 16744 1 0.13986 296436.400000
16743 16752 1 0.13986 296436.400000
16744 16745 1 0.18850 35430.112000
16744 16746 1 0.13986 296436.400000
16745 16754 1 0.16500 119244.000000
16746 16747 1 0.10860 301825.392000
16746 16748 1 0.13986 296436.400000
16748 16749 1 0.10860 301825.392000
16748 16750 1 0.13986 296436.400000
16750 16751 1 0.10860 301825.392000
16750 16752 1 0.13986 296436.400000
16752 16753 1 0.10860 301825.392000
16754 16755 1 0.09450 207108.000000
16756 16757 1 0.10860 301825.392000
16757 16758 1 0.13986 296436.400000
16757 16766 1 0.13986 296436.400000
16758 16759 1 0.18850 35430.112000
16758 16760 1 0.13986 296436.400000
16759 16768 1 0.16500 119244.000000
16760 16761 1 0.10860 301825.392000
16760 16762 1 0.13986 296436.400000
16762 16763 1 0.10860 301825.392000
16762 16764 1 0.13986 296436.400000
16764 16765 1 0.10860 301825.392000
16764 16766 1 0.13986 296436.400000
16766 16767 1 0.10860 301825.392000
16768 16769 1 0.09450 207108.000000
16770 16771 1 0.10860 301825.392000
16771 16772 1 0.13986 296436.400000
16771 16780 1 0.13986 296436.400000
16772 16773 1 0.18850 35430.112000
16772 16774 1 0.13986 296436.400000
16773 16782 1 0.16500 119244.000000
16774 16775 1 0.10860 301825.392000
16774 16776 1 0.13986 296436.400000
16776 16777 1 0.10860 301825.392000
16776 16778 1 0.13986 296436.400000
16778 16779 1 0.10860 301825.392000
16778 16780 1 0.13986 296436.400000
16780 16781 1 0.10860 301825.392000
16782 16783 1 0.09450 207108.000000
16784 16785 1 0.10860 301825.392000
16785 16786 1 0.13986 296436.400000
16785 16794 1 0.13986 296436.400000
16786 16787 1 0.18850 35430.112000
16786 16788 1 0.13986 296436.400000
16787 16796 1 0.16500 119244.000000
16788 16789 1 0.10860 301825.392000
16788 16790 1 0.13986 296436.400000
16790 16791 1 0.10860 301825.392000
16790 16792 1 0.13986 296436.400000
16792 16793 1 0.10860 301825.392000
16792 16794 1 0.13986 296436.400000
16794 16795 1 0.10860 301825.392000
16796 16797 1 0.09450 207108.000000
16798 16799 1 0.10860 301825.392000
16799 16800 1 0.13986 296436.400000
16799 16808 1 0.13986 296436.400000
16800 16801 1 0.18850 35430.112000
16800 16802 1 0.13986 296436.400000
16801 16810 1 0.16500 119244.000000
16802 16803 1 0.10860 301825.392000
16802 16804 1 0.13986 296436.400000
16804 16805 1 0.10860 301825.392000
16804 16806 1 0.13986 296436.400000
16806 16807 1 0.10860 301825.392000
16806 16808 1 0.13986 296436.400000
16808 16809 1 0.10860 301825.392000
16810 16811 1 0.09450 207108.000000
16812 16813 1 0.10860 301825.392000
16813 16814 1 0.13986 296436.400000
16813 16822 1 0.13986 296436.400000
16814 16815 1 0.18850 35430.112000
16814 16816 1 0.13986 296436.400000
16815 16824 1 0.16500 119244.000000
16816 16817 1 0.10860 301825.392000
16816 16818 1 0.13986 296436.400000
16818 16819 1 0.10860 301825.392000
16818 16820 1 0.13986 296436.400000
16820 16821 1 0.10860 301825.392000
16820 16822 1 0.13986 296436.400000
16822 16823 1 0.10860 301825.392000
16824 16825 1 0.09450 207108.000000
16826 16827 1 0.10860 301825.392000
16827 16828 1 0.13986 296436.400000
16827 16836 1 0.13986 296436.400000
16828 16829 1 0.18850 35430.112000
16828 16830 1 0.13986 296436.400000
16829 16838 1 0.16500 119244.000000
16830 16831 1 0.10860 301825.392000
16830 16832 1 0.13986 296436.400000
16832 16833 1 0.10860 301825.392000
16832 16834 1 0.13986 296436.400000
16834 16835 1 0.10860 301825.392000
16834 16836 1 0.13986 296436.400000
16836 16837 1 0.10860 301825.392000
16838 16839 1 0.09450 207108.000000
16840 16841 1 0.10860 301825.392000
16841 16842 1 0.13986 296436.400000
16841 16850 1 0.13986 296436.400000
16842 16843 1 0.18850 35430.112000
16842 16844 1 0.13986 296436.400000
16843 16852 1 0.16500 119244.000000
16844 16845 1 0.10860 301825.392000
16844 16846 1 0.13986 296436.400000
16846 16847 1 0.10860 301825.392000
16846 16848 1 0.13986 296436.400000
16848 16849 1 0.10860 301825.392000
16848 16850 1 0.13986 296436.400000
16850 16851 1 0.10860 301825.392000
16852 16853 1 0.09450 207108.000000
16854 16855 1 0.10860 301825.392000
16855 16856 1 0.13986 296436.400000
16855 16864 1 0.13986 296436.400000
16856 16857 1 0.18850 35430.112000
16856 16858 1 0.13986 296436.400000
16857 16866 1 0.16500 119244.000000
16858 16859 1 0.10860 301825.392000
16858 16860 1 0.13986 296436.400000
16860 16861 1 0.10860 301825.392000
16860 16862 1 0.13986 296436.400000
16862 16863 1 0.10860 301825.392000
16862 16864 1 0.13986 296436.400000
16864 16865 1 0.10860 301825.392000
16866 16867 1 0.09450 207108.000000
16868 16869 1 0.10860 301825.392000
16869 16870 1 0.13986 296436.400000
16869 16878 1 0.13986 296436.400000
16870 16871 1 0.18850 35430.112000
16870 16872 1 0.13986 296436.400000
16871 16880 1 0.16500 119244.000000
16872 16873 1 0.10860 301825.392000
16872 16874 1 0.13986 296436.400000
16874 16875 1 0.10860 301825.392000
16874 16876 1 0.13986 296436.400000
16876 16877 1 0.10860 301825.392000
16876 16878 1 0.13986 296436.400000
16878 16879 1 0.10860 301825.392000
16880 16881 1 0.09450 207108.000000
16882 16883 1 0.10860 301825.392000
16883 16884 1 0.13986 296436.400000
16883 16892 1 0.13986 296436.400000
16884 16885 1 0.18850 35430.112000
16884 16886 1 0.13986 296436.400000
16885 16894 1 0.16500 119244.000000
16886 16887 1 0.10860 301825.392000
16886 16888 1 0.13986 296436.400000
16888 16889 1 0.10860 301825.392000
16888 16890 1 0.13986 296436.400000
16890 16891 1 0.10860 301825.392000
16890 16892 1 0.13986 296436.400000
16892 16893 1 0.10860 301825.392000
16894 16895 1 0.09450 207108.000000
16896 16897 1 0.10860 301825.392000
16897 16898 1 0.13986 296436.400000
16897 16906 1 0.13986 296436.400000
16898 16899 1 0.18850 35430.112000
16898 16900 1 0.13986 296436.400000
16899 16908 1 0.16500 119244.000000
16900 16901 1 0.10860 301825.392000
16900 16902 1 0.13986 296436.400000
16902 16903 1 0.10860 301825.392000
16902 16904 1 0.13986 296436.400000
16904 16905 1 0.10860 301825.392000
16904 16906 1 0.13986 296436.400000
16906 16907 1 0.10860 301825.392000
16908 16909 1 0.09450 207108.000000
16910 16911 1 0.10860 301825.392000
16911 16912 1 0.13986 296436.400000
16911 16920 1 0.13986 296436.400000
16912 16913 1 0.18850 35430.112000
16912 16914 1 0.13986 296436.400000
16913 16922 1 0.16500 119244.000000
16914 16915 1 0.10860 301825.392000
16914 16916 1 0.13986 296436.400000
16916 16917 1 0.10860 301825.392000
16916 16918 1 0.13986 296436.400000
16918 16919 1 0.10860 301825.392000
16918 16920 1 0.13986 296436.400000
16920 16921 1 0.10860 301825.392000
16922 16923 1 0.09450 207108.000000
16924 16925 1 0.10860 301825.392000
16925 16926 1 0.13986 296436.400000
16925 16934 1 0.13986 296436.400000
16926 16927 1 0.18850 35430.112000
16926 16928 1 0.13986 296436.400000
16927 16936 1 0.16500 119244.000000
16928 16929 1 0.10860 301825.392000
16928 16930 1 0.13986 296436.400000
16930 16931 1 0.10860 301825.392000
16930 16932 1 0.13986 296436.400000
16932 16933 1 0.10860 301825.392000
16932 16934 1 0.13986 296436.400000
16934 16935 1 0.10860 301825.392000
16936 16937 1 0.09450 207108.000000
16938 16939 1 0.10860 301825.392000
16939 16940 1 0.13986 296436.400000
16939 16948 1 0.13986 296436.400000
16940 16941 1 0.18850 35430.112000
16940 16942 1 0.13986 296436.400000
16941 16950 1 0.16500 119244.000000
16942 16943 1 0.10860 301825.392000
16942 16944 1 0.13986 296436.400000
16944 16945 1 0.10860 301825.392000
16944 16946 1 0.13986 296436.400000
16946 16947 1 0.10860 301825.392000
16946 16948 1 0.13986 296436.400000
16948 16949 1 0.10860 301825.392000
16950 16951 1 0.09450 207108.000000
16952 16953 1 0.10860 301825.392000
16953 16954 1 0.13986 296436.400000
16953 16962 1 0.13986 296436.400000
16954 16955 1 0.18850 35430.112000
16954 16956 1 0.13986 296436.400000
16955 16964 1 0.16500 119244.000000
16956 16957 1 0.10860 301825.392000
16956 16958 1 0.13986 296436.400000
16958 16959 1 0.10860 301825.392000
16958 16960 1 0.13986 296436.400000
16960 16961 1 0.10860 301825.392000
16960 16962 1 0.13986 296436.400000
16962 16963 1 0.10860 301825.392000
16964 16965 1 0.09450 207108.000000
16966 16967 1 0.10860 301825.392000
16967 16968 1 0.13986 296436.400000
16967 16976 1 0.13986 296436.400000
16968 16969 1 0.18850 35430.112000
16968 16970 1 0.13986 296436.400000
16969 16978 1 0.16500 119244.000000
16970 16971 1 0.10860 301825.392000
16970 16972 1 0.13986 296436.400000
16972 16973 1 0.10860 301825.392000
16972 16974 1 0.13986 296436.400000
16974 16975 1 0.10860 301825.392000
16974 16976 1 0.13986 296436.400000
16976 16977 1 0.10860 301825.392000
16978 16979 1 0.09450 207108.000000
16980 16981 1 0.10860 301825.392000
16981 16982 1 0.13986 296436.400000
16981 16990 1 0.13986 296436.400000
16982 16983 1 0.18850 35430.112000
16982 16984 1 0.13986 296436.400000
16983 16992 1 0.16500 119244.000000
16984 16985 1 0.10860 301825.392000
16984 16986 1 0.13986 296436.400000
16986 16987 1 0.10860 301825.392000
16986 16988 1 0.13986 296436.400000
16988 16989 1 0.10860 301825.392000
16988 16990 1 0.13986 296436.400000
16990 16991 1 0.10860 301825.392000
16992 16993 1 0.09450 207108.000000
16994 16995 1 0.10860 301825.392000
16995 16996 1 0.13986 296436.400000
16995 17004 1 0.13986 296436.400000
16996 16997 1 0.18850 35430.112000
16996 16998 1 0.13986 296436.400000
16997 17006 1 0.16500 119244.000000
16998 16999 1 0.10860 301825.392000
16998 17000 1 0.13986 296436.400000
17000 17001 1 0.10860 301825.392000
17000 17002 1 0.13986 296436.400000
17002 17003 1 0.10860 301825.392000
17002 17004 1 0.13986 296436.400000
17004 17005 1 0.10860 301825.392000
17006 17007 1 0.09450 207108.000000
17008 17009 1 0.10860 301825.392000
17009 17010 1 0.13986 296436.400000
17009 17018 1 0.13986 296436.400000
17010 17011 1 0.18850 35430.112000
17010 17012 1 0.13986 296436.400000
17011 17020 1 0.16500 119244.000000
17012 17013 1 0.10860 301825.392000
17012 17014 1 0.13986 296436.400000
17014 17015 1 0.10860 301825.392000
17014 17016 1 0.13986 296436.400000
17016 17017 1 0.10860 301825.392000
17016 17018 1 0.13986 296436.400000
17018 17019 1 0.10860 301825.392000
17020 17021 1 0.09450 207108.000000
17022 17023 1 0.10860 301825.392000
17023 17024 1 0.13986 296436.400000
17023 17032 1 0.13986 296436.400000
17024 17025 1 0.18850 35430.112000
17024 17026 1 0.13986 296436.400000
17025 17034 1 0.16500 119244.000000
17026 17027 1 0.10860 301825.392000
17026 17028 1 0.13986 296436.400000
17028 17029 1 0.10860 301825.392000
17028 17030 1 0.13986 296436.400000
17030 17031 1 0.10860 301825.392000
17030 17032 1 0.13986 296436.400000
17032 17033 1 0.10860 301825.392000
17034 17035 1 0.09450 207108.000000
17036 17037 1 0.10860 301825.392000
17037 17038 1 0.13986 296436.400000
17037 17046 1 0.13986 296436.400000
17038 17039 1 0.18850 35430.112000
17038 17040 1 0.13986 296436.400000
17039 17048 1 0.16500 119244.000000
17040 17041 1 0.10860 301825.392000
17040 17042 1 0.13986 296436.400000
17042 17043 1 0.10860 301825.392000
17042 17044 1 0.13986 296436.400000
17044 17045 1 0.10860 301825.392000
17044 17046 1 0.13986 296436.400000
17046 17047 1 0.10860 301825.392000
17048 17049 1 0.09450 207108.000000
17050 17051 1 0.10860 301825.392000
17051 17052 1 0.13986 296436.400000
17051 17060 1 0.13986 296436.400000
17052 17053 1 0.18850 35430.112000
17052 17054 1 0.13986 296436.400000
17053 17062 1 0.16500 119244.000000
17054 17055 1 0.10860 301825.392000
17054 17056 1 0.13986 296436.400000
17056 17057 1 0.10860 301825.392000
17056 17058 1 0.13986 296436.400000
17058 17059 1 0.10860 301825.392000
17058 17060 1 0.13986 296436.400000
17060 17061 1 0.10860 301825.392000
17062 17063 1 0.09450 207108.000000
17064 17065 1 0.10860 301825.392000
17065 17066 1 0.13986 296436.400000
17065 17074 1 0.13986 296436.400000
17066 17067 1 0.18850 35430.112000
17066 17068 1 0.13986 296436.400000
17067 17076 1 0.16500 119244.000000
17068 17069 1 0.10860 301825.392000
17068 17070 1 0.13986 296436.400000
17070 17071 1 0.10860 301825.392000
17070 17072 1 0.13986 296436.400000
17072 17073 1 0.10860 301825.392000
17072 17074 1 0.13986 296436.400000
17074 17075 1 0.10860 301825.392000
17076 17077 1 0.09450 207108.000000
17078 17079 1 0.10860 301825.392000
17079 17080 1 0.13986 296436.400000
17079 17088 1 0.13986 296436.400000
17080 17081 1 0.18850 35430.112000
17080 17082 1 0.13986 296436.400000
17081 17090 1 0.16500 119244.000000
17082 17083 1 0.10860 301825.392000
17082 17084 1 0.13986 296436.400000
17084 17085 1 0.10860 301825.392000
17084 17086 1 0.13986 296436.400000
17086 17087 1 0.10860 301825.392000
17086 17088 1 0.13986 296436.400000
17088 17089 1 0.10860 301825.392000
17090 17091 1 0.09450 207108.000000
17092 17093 1 0.10860 301825.392000
17093 17094 1 0.13986 296436.400000
17093 17102 1 0.13986 296436.400000
17094 17095 1 0.18850 35430.112000
17094 17096 1 0.13986 296436.400000
17095 17104 1 0.16500 119244.000000
17096 17097 1 0.10860 301825.392000
17096 17098 1 0.13986 296436.400000
17098 17099 1 0.10860 301825.392000
17098 17100 1 0.13986 296436.400000
17100 17101 1 0.10860 301825.392000
17100 17102 1 0.13986 296436.400000
17102 17103 1 0.10860 301825.392000
17104 17105 1 0.09450 207108.000000
17106 17107 1 0.10860 301825.392000
17107 17108 1 0.13986 296436.400000
17107 17116 1 0.13986 296436.400000
17108 17109 1 0.18850 35430.112000
17108 17110 1 0.13986 296436.400000
17109 17118 1 0.16500 119244.000000
17110 17111 1 0.10860 301825.392000
17110 17112 1 0.13986 296436.400000
17112 17113 1 0.10860 301825.392000
17112 17114 1 0.13986 296436.400000
17114 17115 1 0.10860 301825.392000
17114 17116 1 0.13986 296436.400000
17116 17117 1 0.10860 301825.392000
17118 17119 1 0.09450 207108.000000
17120 17121 1 0.10860 301825.392000
17121 17122 1 0.13986 296436.400000
17121 17130 1 0.13986 296436.400000
17122 17123 1 0.18850 35430.112000
17122 17124 1 0.13986 296436.400000
17123 17132 1 0.16500 119244.000000
17124 17125 1 0.10860 301825.392000
17124 17126 1 0.13986 296436.400000
17126 17127 1 0.10860 301825.392000
17126 17128 1 0.13986 296436.400000
17128 17129 1 0.10860 301825.392000
17128 17130 1 0.13986 296436.400000
17130 17131 1 0.10860 301825.392000
17132 17133 1 0.09450 207108.000000
17134 17135 1 0.10860 301825.392000
17135 17136 1 0.13986 296436.400000
17135 17144 1 0.13986 296436.400000
17136 17137 1 0.18850 35430.112000
17136 17138 1 0.13986 296436.400000
17137 17146 1 0.16500 119244.000000
17138 17139 1 0.10860 301825.392000
17138 17140 1 0.13986 296436.400000
17140 17141 1 0.10860 301825.392000
17140 17142 1 0.13986 296436.400000
17142 17143 1 0.10860 301825.392000
17142 17144 1 0.13986 296436.400000
17144 17145 1 0.10860 301825.392000
17146 17147 1 0.09450 207108.000000
17148 17149 1 0.10860 301825.392000
17149 17150 1 0.13986 296436.400000
17149 17158 1 0.13986 296436.400000
17150 17151 1 0.18850 35430.112000
17150 17152 1 0.13986 296436.400000
17151 17160 1 0.16500 119244.000000
17152 17153 1 0.10860 301825.392000
17152 17154 1 0.13986 296436.400000
17154 17155 1 0.10860 301825.392000
17154 17156 1 0.13986 296436.400000
17156 17157 1 0.10860 301825.392000
17156 17158 1 0.13986 296436.400000
17158 17159 1 0.10860 301825.392000
17160 17161 1 0.09450 207108.000000
17162 17163 1 0.10860 301825.392000
17163 17164 1 0.13986 296436.400000
17163 17172 1 0.13986 296436.400000
17164 17165 1 0.18850 35430.112000
17164 17166 1 0.13986 296436.400000
17165 17174 1 0.16500 119244.000000
17166 17167 1 0.10860 301825.392000
17166 17168 1 0.13986 296436.400000
17168 17169 1 0.10860 301825.392000
17168 17170 1 0.13986 296436.400000
17170 17171 1 0.10860 301825.392000
17170 17172 1 0.13986 296436.400000
17172 17173 1 0.10860 301825.392000
17174 17175 1 0.09450 207108.000000
17176 17177 1 0.10860 301825.392000
17177 17178 1 0.13986 296436.400000
17177 17186 1 0.13986 296436.400000
17178 17179 1 0.18850 35430.112000
17178 17180 1 0.13986 296436.400000
17179 17188 1 0.16500 119244.000000
17180 17181 1 0.10860 301825.392000
17180 17182 1 0.13986 296436.400000
17182 17183 1 0.10860 301825.392000
17182 17184 1 0.13986 296436.400000
17184 17185 1 0.10860 301825.392000
17184 17186 1 0.13986 296436.400000
17186 17187 1 0.10860 301825.392000
17188 17189 1 0.09450 207108.000000
17190 17191 1 0.10860 301825.392000
17191 17192 1 0.13986 296436.400000
17191 17200 1 0.13986 296436.400000
17192 17193 1 0.18850 35430.112000
17192 17194 1 0.13986 296436.400000
17193 17202 1 0.16500 119244.000000
17194 17195 1 0.10860 301825.392000
17194 17196 1 0.13986 296436.400000
17196 17197 1 0.10860 301825.392000
17196 17198 1 0.13986 296436.400000
17198 17199 1 0.10860 301825.392000
17198 17200 1 0.13986 296436.400000
17200 17201 1 0.10860 301825.392000
17202 17203 1 0.09450 207108.000000
17204 17205 1 0.10860 301825.392000
17205 17206 1 0.13986 296436.400000
17205 17214 1 0.13986 296436.400000
17206 17207 1 0.18850 35430.112000
17206 17208 1 0.13986 296436.400000
17207 17216 1 0.16500 119244.000000
17208 17209 1 0.10860 301825.392000
17208 17210 1 0.13986 296436.400000
17210 17211 1 0.10860 301825.392000
17210 17212 1 0.13986 296436.400000
17212 17213 1 0.10860 301825.392000
17212 17214 1 0.13986 296436.400000
17214 17215 1 0.10860 301825.392000
17216 17217 1 0.09450 207108.000000
17218 17219 1 0.10860 301825.392000
17219 17220 1 0.13986 296436.400000
17219 17228 1 0.13986 296436.400000
17220 17221 1 0.18850 35430.112000
17220 17222 1 0.13986 296436.400000
17221 17230 1 0.16500 119244.000000
17222 17223 1 0.10860 301825.392000
17222 17224 1 0.13986 296436.400000
17224 17225 1 0.10860 301825.392000
17224 17226 1 0.13986 296436.400000
17226 17227 1 0.10860 301825.392000
17226 17228 1 0.13986 296436.400000
17228 17229 1 0.10860 301825.392000
17230 17231 1 0.09450 207108.000000
17232 17233 1 0.10860 301825.392000
17233 17234 1 0.13986 296436.400000
17233 17242 1 0.13986 296436.400000
17234 17235 1 0.18850 35430.112000
17234 17236 1 0.13986 296436.400000
17235 17244 1 0.16500 119244.000000
17236 17237 1 0.10860 301825.392000
17236 17238 1 0.13986 296436.400000
17238 17239 1 0.10860 301825.392000
17238 17240 1 0.13986 296436.400000
17240 17241 1 0.10860 301825.392000
17240 17242 1 0.13986 296436.400000
17242 17243 1 0.10860 301825.392000
17244 17245 1 0.09450 207108.000000
17246 17247 1 0.10860 301825.392000
17247 17248 1 0.13986 296436.400000
17247 17256 1 0.13986 296436.400000
17248 17249 1 0.18850 35430.112000
17248 17250 1 0.13986 296436.400000
17249 17258 1 0.16500 119244.000000
17250 17251 1 0.10860 301825.392000
17250 17252 1 0.13986 296436.400000
17252 17253 1 0.10860 301825.392000
17252 17254 1 0.13986 296436.400000
17254 17255 1 0.10860 301825.392000
17254 17256 1 0.13986 296436.400000
17256 17257 1 0.10860 301825.392000
17258 17259 1 0.09450 207108.000000
17260 17261 1 0.10860 301825.392000
17261 17262 1 0.13986 296436.400000
17261 17270 1 0.13986 296436.400000
17262 17263 1 0.18850 35430.112000
17262 17264 1 0.13986 296436.400000
17263 17272 1 0.16500 119244.000000
17264 17265 1 0.10860 301825.392000
17264 17266 1 0.13986 296436.400000
17266 17267 1 0.10860 301825.392000
17266 17268 1 0.13986 296436.400000
17268 17269 1 0.10860 301825.392000
17268 17270 1 0.13986 296436.400000
17270 17271 1 0.10860 301825.392000
17272 17273 1 0.09450 207108.000000
17274 17275 1 0.10860 301825.392000
17275 17276 1 0.13986 296436.400000
17275 17284 1 0.13986 296436.400000
17276 17277 1 0.18850 35430.112000
17276 17278 1 0.13986 296436.400000
17277 17286 1 0.16500 119244.000000
17278 17279 1 0.10860 301825.392000
17278 17280 1 0.13986 296436.400000
17280 17281 1 0.10860 301825.392000
17280 17282 1 0.13986 296436.400000
17282 17283 1 0.10860 301825.392000
17282 17284 1 0.13986 296436.400000
17284 17285 1 0.10860 301825.392000
17286 17287 1 0.09450 207108.000000
17288 17289 1 0.10860 301825.392000
17289 17290 1 0.13986 296436.400000
17289 17298 1 0.13986 296436.400000
17290 17291 1 0.18850 35430.112000
17290 17292 1 0.13986 296436.400000
17291 17300 1 0.16500 119244.000000
17292 17293 1 0.10860 301825.392000
17292 17294 1 0.13986 296436.400000
17294 17295 1 0.10860 301825.392000
17294 17296 1 0.13986 296436.400000
17296 17297 1 0.10860 301825.392000
17296 17298 1 0.13986 296436.400000
17298 17299 1 0.10860 301825.392000
17300 17301 1 0.09450 207108.000000
17302 17303 1 0.10860 301825.392000
17303 17304 1 0.13986 296436.400000
17303 17312 1 0.13986 296436.400000
17304 17305 1 0.18850 35430.112000
17304 17306 1 0.13986 296436.400000
17305 17314 1 0.16500 119244.000000
17306 17307 1 0.10860 301825.392000
17306 17308 1 0.13986 296436.400000
17308 17309 1 0.10860 301825.392000
17308 17310 1 0.13986 296436.400000
17310 17311 1 0.10860 301825.392000
17310 17312 1 0.13986 296436.400000
17312 17313 1 0.10860 301825.392000
17314 17315 1 0.09450 207108.000000
17316 17317 1 0.10860 301825.392000
17317 17318 1 0.13986 296436.400000
17317 17326 1 0.13986 296436.400000
17318 17319 1 0.18850 35430.112000
17318 17320 1 0.13986 296436.400000
17319 17328 1 0.16500 119244.000000
17320 17321 1 0.10860 301825.392000
17320 17322 1 0.13986 296436.400000
17322 17323 1 0.10860 301825.392000
17322 17324 1 0.13986 296436.400000
17324 17325 1 0.10860 301825.392000
17324 17326 1 0.13986 296436.400000
17326 17327 1 0.10860 301825.392000
17328 17329 1 0.09450 207108.000000
17330 17331 1 0.10860 301825.392000
17331 17332 1 0.13986 296436.400000
17331 17340 1 0.13986 296436.400000
17332 17333 1 0.18850 35430.112000
17332 17334 1 0.13986 296436.400000
17333 17342 1 0.16500 119244.000000
17334 17335 1 0.10860 301825.392000
17334 17336 1 0.13986 296436.400000
17336 17337 1 0.10860 301825.392000
17336 17338 1 0.13986 296436.400000
17338 17339 1 0.10860 301825.392000
17338 17340 1 0.13986 296436.400000
17340 17341 1 0.10860 301825.392000
17342 17343 1 0.09450 207108.000000
17344 17345 1 0.10860 301825.392000
17345 17346 1 0.13986 296436.400000
17345 17354 1 0.13986 296436.400000
17346 17347 1 0.18850 35430.112000
17346 17348 1 0.13986 296436.400000
17347 17356 1 0.16500 119244.000000
17348 17349 1 0.10860 301825.392000
17348 17350 1 0.13986 296436.400000
17350 17351 1 0.10860 301825.392000
17350 17352 1 0.13986 296436.400000
17352 17353 1 0.10860 301825.392000
17352 17354 1 0.13986 296436.400000
17354 17355 1 0.10860 301825.392000
17356 17357 1 0.09450 207108.000000
17358 17359 1 0.10860 301825.392000
17359 17360 1 0.13986 296436.400000
17359 17368 1 0.13986 296436.400000
17360 17361 1 0.18850 35430.112000
17360 17362 1 0.13986 296436.400000
17361 17370 1 0.16500 119244.000000
17362 17363 1 0.10860 301825.392000
17362 17364 1 0.13986 296436.400000
17364 17365 1 0.10860 301825.392000
17364 17366 1 0.13986 296436.400000
17366 17367 1 0.10860 301825.392000
17366 17368 1 0.13986 296436.400000
17368 17369 1 0.10860 301825.392000
17370 17371 1 0.09450 207108.000000
17372 17373 1 0.10860 301825.392000
17373 17374 1 0.13986 296436.400000
17373 17382 1 0.13986 296436.400000
17374 17375 1 0.18850 35430.112000
17374 17376 1 0.13986 296436.400000
17375 17384 1 0.16500 119244.000000
17376 17377 1 0.10860 301825.392000
17376 17378 1 0.13986 296436.400000
17378 17379 1 0.10860 301825.392000
17378 17380 1 0.13986 296436.400000
17380 17381 1 0.10860 301825.392000
17380 17382 1 0.13986 296436.400000
17382 17383 1 0.10860 301825.392000
17384 17385 1 0.09450 207108.000000
17386 17387 1 0.10860 301825.392000
17387 17388 1 0.13986 296436.400000
17387 17396 1 0.13986 296436.400000
17388 17389 1 0.18850 35430.112000
17388 17390 1 0.13986 296436.400000
17389 17398 1 0.16500 119244.000000
17390 17391 1 0.10860 301825.392000
17390 17392 1 0.13986 296436.400000
17392 17393 1 0.10860 301825.392000
17392 17394 1 0.13986 296436.400000
17394 17395 1 0.10860 301825.392000
17394 17396 1 0.13986 296436.400000
17396 17397 1 0.10860 301825.392000
17398 17399 1 0.09450 207108.000000
17400 17401 1 0.10860 301825.392000
17401 17402 1 0.13986 296436.400000
17401 17410 1 0.13986 296436.400000
17402 17403 1 0.18850 35430.112000
17402 17404 1 0.13986 296436.400000
17403 17412 1 0.16500 119244.000000
17404 17405 1 0.10860 301825.392000
17404 17406 1 0.13986 296436.400000
17406 17407 1 0.10860 301825.392000
17406 17408 1 0.13986 296436.400000
17408 17409 1 0.10860 301825.392000
17408 17410 1 0.13986 296436.400000
17410 17411 1 0.10860 301825.392000
17412 17413 1 0.09450 207108.000000
17414 17415 1 0.10860 301825.392000
17415 17416 1 0.13986 296436.400000
17415 17424 1 0.13986 296436.400000
17416 17417 1 0.18850 35430.112000
17416 17418 1 0.13986 296436.400000
17417 17426 1 0.16500 119244.000000
17418 17419 1 0.10860 301825.392000
17418 17420 1 0.13986 296436.400000
17420 17421 1 0.10860 301825.392000
17420 17422 1 0.13986 296436.400000
17422 17423 1 0.10860 301825.392000
17422 17424 1 0.13986 296436.400000
17424 17425 1 0.10860 301825.392000
17426 17427 1 0.09450 207108.000000
17428 17429 1 0.10860 301825.392000
17429 17430 1 0.13986 296436.400000
17429 17438 1 0.13986 296436.400000
17430 17431 1 0.18850 35430.112000
17430 17432 1 0.13986 296436.400000
17431 17440 1 0.16500 119244.000000
17432 17433 1 0.10860 301825.392000
17432 17434 1 0.13986 296436.400000
17434 17435 1 0.10860 301825.392000
17434 17436 1 0.13986 296436.400000
17436 17437 1 0.10860 301825.392000
17436 17438 1 0.13986 296436.400000
17438 17439 1 0.10860 301825.392000
17440 17441 1 0.09450 207108.000000
17442 17443 1 0.10860 301825.392000
17443 17444 1 0.13986 296436.400000
17443 17452 1 0.13986 296436.400000
17444 17445 1 0.18850 35430.112000
17444 17446 1 0.13986 296436.400000
17445 17454 1 0.16500 119244.000000
17446 17447 1 0.10860 301825.392000
17446 17448 1 0.13986 296436.400000
17448 17449 1 0.10860 301825.392000
17448 17450 1 0.13986 296436.400000
17450 17451 1 0.10860 301825.392000
17450 17452 1 0.13986 296436.400000
17452 17453 1 0.10860 301825.392000
17454 17455 1 0.09450 207108.000000
17456 17457 1 0.10860 301825.392000
17457 17458 1 0.13986 296436.400000
17457 17466 1 0.13986 296436.400000
17458 17459 1 0.18850 35430.112000
17458 17460 1 0.13986 296436.400000
17459 17468 1 0.16500 119244.000000
17460 17461 1 0.10860 301825.392000
17460 17462 1 0.13986 296436.400000
17462 17463 1 0.10860 301825.392000
17462 17464 1 0.13986 296436.400000
17464 17465 1 0.10860 301825.392000
17464 17466 1 0.13986 296436.400000
17466 17467 1 0.10860 301825.392000
17468 17469 1 0.09450 207108.000000
17470 17471 1 0.10860 301825.392000
17471 17472 1 0.13986 296436.400000
17471 17480 1 0.13986 296436.400000
17472 17473 1 0.18850 35430.112000
17472 17474 1 0.13986 296436.400000
17473 17482 1 0.16500 119244.000000
17474 17475 1 0.10860 301825.392000
17474 17476 1 0.13986 296436.400000
17476 17477 1 0.10860 301825.392000
17476 17478 1 0.13986 296436.400000
17478 17479 1 0.10860 301825.392000
17478 17480 1 0.13986 296436.400000
17480 17481 1 0.10860 301825.392000
17482 17483 1 0.09450 207108.000000
17484 17485 1 0.10860 301825.392000
17485 17486 1 0.13986 296436.400000
17485 17494 1 0.13986 296436.400000
17486 17487 1 0.18850 35430.112000
17486 17488 1 0.13986 296436.400000
17487 17496 1 0.16500 119244.000000
17488 17489 1 0.10860 301825.392000
17488 17490 1 0.13986 296436.400000
17490 17491 1 0.10860 301825.392000
17490 17492 1 0.13986 296436.400000
17492 17493 1 0.10860 301825.392000
17492 17494 1 0.13986 296436.400000
17494 17495 1 0.10860 301825.392000
17496 17497 1 0.09450 207108.000000
17498 17499 1 0.10860 301825.392000
17499 17500 1 0.13986 296436.400000
17499 17508 1 0.13986 296436.400000
17500 17501 1 0.18850 35430.112000
17500 17502 1 0.13986 296436.400000
17501 17510 1 0.16500 119244.000000
17502 17503 1 0.10860 301825.392000
17502 17504 1 0.13986 296436.400000
17504 17505 1 0.10860 301825.392000
17504 17506 1 0.13986 296436.400000
17506 17507 1 0.10860 301825.392000
17506 17508 1 0.13986 296436.400000
17508 17509 1 0.10860 301825.392000
17510 17511 1 0.09450 207108.000000
17512 17513 1 0.10860 301825.392000
17513 17514 1 0.13986 296436.400000
17513 17522 1 0.13986 296436.400000
17514 17515 1 0.18850 35430.112000
17514 17516 1 0.13986 296436.400000
17515 17524 1 0.16500 119244.000000
17516 17517 1 0.10860 301825.392000
17516 17518 1 0.13986 296436.400000
17518 17519 1 0.10860 301825.392000
17518 17520 1 0.13986 296436.400000
17520 17521 1 0.10860 301825.392000
17520 17522 1 0.13986 296436.400000
17522 17523 1 0.10860 301825.392000
17524 17525 1 0.09450 207108.000000
17526 17527 1 0.10860 301825.392000
17527 17528 1 0.13986 296436.400000
17527 17536 1 0.13986 296436.400000
17528 17529 1 0.18850 35430.112000
17528 17530 1 0.13986 296436.400000
17529 17538 1 0.16500 119244.000000
17530 17531 1 0.10860 301825.392000
17530 17532 1 0.13986 296436.400000
17532 17533 1 0.10860 301825.392000
17532 17534 1 0.13986 296436.400000
17534 17535 1 0.10860 301825.392000
17534 17536 1 0.13986 296436.400000
17536 17537 1 0.10860 301825.392000
17538 17539 1 0.09450 207108.000000
17540 17541 1 0.10860 301825.392000
17541 17542 1 0.13986 296436.400000
17541 17550 1 0.13986 296436.400000
17542 17543 1 0.18850 35430.112000
17542 17544 1 0.13986 296436.400000
17543 17552 1 0.16500 119244.000000
17544 17545 1 0.10860 301825.392000
17544 17546 1 0.13986 296436.400000
17546 17547 1 0.10860 301825.392000
17546 17548 1 0.13986 296436.400000
17548 17549 1 0.10860 301825.392000
17548 17550 1 0.13986 296436.400000
17550 17551 1 0.10860 301825.392000
17552 17553 1 0.09450 207108.000000
17554 17555 1 0.10860 301825.392000
17555 17556 1 0.13986 296436.400000
17555 17564 1 0.13986 296436.400000
17556 17557 1 0.18850 35430.112000
17556 17558 1 0.13986 296436.400000
17557 17566 1 0.16500 119244.000000
17558 17559 1 0.10860 301825.392000
17558 17560 1 0.13986 296436.400000
17560 17561 1 0.10860 301825.392000
17560 17562 1 0.13986 296436.400000
17562 17563 1 0.10860 301825.392000
17562 17564 1 0.13986 296436.400000
17564 17565 1 0.10860 301825.392000
17566 17567 1 0.09450 207108.000000
17568 17569 1 0.10860 301825.392000
17569 17570 1 0.13986 296436.400000
17569 17578 1 0.13986 296436.400000
17570 17571 1 0.18850 35430.112000
17570 17572 1 0.13986 296436.400000
17571 17580 1 0.16500 119244.000000
17572 17573 1 0.10860 301825.392000
17572 17574 1 0.13986 296436.400000
17574 17575 1 0.10860 301825.392000
17574 17576 1 0.13986 296436.400000
17576 17577 1 0.10860 301825.392000
17576 17578 1 0.13986 296436.400000
17578 17579 1 0.10860 301825.392000
17580 17581 1 0.09450 207108.000000
17582 17583 1 0.10860 301825.392000
17583 17584 1 0.13986 296436.400000
17583 17592 1 0.13986 296436.400000
17584 17585 1 0.18850 35430.112000
17584 17586 1 0.13986 296436.400000
17585 17594 1 0.16500 119244.000000
17586 17587 1 0.10860 301825.392000
17586 17588 1 0.13986 296436.400000
17588 17589 1 0.10860 301825.392000
17588 17590 1 0.13986 296436.400000
17590 17591 1 0.10860 301825.392000
17590 17592 1 0.13986 296436.400000
17592 17593 1 0.10860 301825.392000
17594 17595 1 0.09450 207108.000000
17596 17597 1 0.10860 301825.392000
17597 17598 1 0.13986 296436.400000
17597 17606 1 0.13986 296436.400000
17598 17599 1 0.18850 35430.112000
17598 17600 1 0.13986 296436.400000
17599 17608 1 0.16500 119244.000000
17600 17601 1 0.10860 301825.392000
17600 17602 1 0.13986 296436.400000
17602 17603 1 0.10860 301825.392000
17602 17604 1 0.13986 296436.400000
17604 17605 1 0.10860 301825.392000
17604 17606 1 0.13986 296436.400000
17606 17607 1 0.10860 301825.392000
17608 17609 1 0.09450 207108.000000
17610 17611 1 0.10860 301825.392000
17611 17612 1 0.13986 296436.400000
17611 17620 1 0.13986 296436.400000
17612 17613 1 0.18850 35430.112000
17612 17614 1 0.13986 296436.400000
17613 17622 1 0.16500 119244.000000
17614 17615 1 0.10860 301825.392000
17614 17616 1 0.13986 296436.400000
17616 17617 1 0.10860 301825.392000
17616 17618 1 0.13986 296436.400000
17618 17619 1 0.10860 301825.392000
17618 17620 1 0.13986 296436.400000
17620 17621 1 0.10860 301825.392000
17622 17623 1 0.09450 207108.000000
17624 17625 1 0.10860 301825.392000
17625 17626 1 0.13986 296436.400000
17625 17634 1 0.13986 296436.400000
17626 17627 1 0.18850 35430.112000
17626 17628 1 0.13986 296436.400000
17627 17636 1 0.16500 119244.000000
17628 17629 1 0.10860 301825.392000
17628 17630 1 0.13986 296436.400000
17630 17631 1 0.10860 301825.392000
17630 17632 1 0.13986 296436.400000
17632 17633 1 0.10860 301825.392000
17632 17634 1 0.13986 296436.400000
17634 17635 1 0.10860 301825.392000
17636 17637 1 0.09450 207108.000000
17638 17639 1 0.10860 301825.392000
17639 17640 1 0.13986 296436.400000
17639 17648 1 0.13986 296436.400000
17640 17641 1 0.18850 35430.112000
17640 17642 1 0.13986 296436.400000
17641 17650 1 0.16500 119244.000000
17642 17643 1 0.10860 301825.392000
17642 17644 1 0.13986 296436.400000
17644 17645 1 0.10860 301825.392000
17644 17646 1 0.13986 296436.400000
17646 17647 1 0.10860 301825.392000
17646 17648 1 0.13986 296436.400000
17648 17649 1 0.10860 301825.392000
17650 17651 1 0.09450 207108.000000
17652 17653 1 0.10860 301825.392000
17653 17654 1 0.13986 296436.400000
17653 17662 1 0.13986 296436.400000
17654 17655 1 0.18850 35430.112000
17654 17656 1 0.13986 296436.400000
17655 17664 1 0.16500 119244.000000
17656 17657 1 0.10860 301825.392000
17656 17658 1 0.13986 296436.400000
17658 17659 1 0.10860 301825.392000
17658 17660 1 0.13986 296436.400000
17660 17661 1 0.10860 301825.392000
17660 17662 1 0.13986 296436.400000
17662 17663 1 0.10860 301825.392000
17664 17665 1 0.09450 207108.000000
17666 17667 1 0.10860 301825.392000
17667 17668 1 0.13986 296436.400000
17667 17676 1 0.13986 296436.400000
17668 17669 1 0.18850 35430.112000
17668 17670 1 0.13986 296436.400000
17669 17678 1 0.16500 119244.000000
17670 17671 1 0.10860 301825.392000
17670 17672 1 0.13986 296436.400000
17672 17673 1 0.10860 301825.392000
17672 17674 1 0.13986 296436.400000
17674 17675 1 0.10860 301825.392000
17674 17676 1 0.13986 296436.400000
17676 17677 1 0.10860 301825.392000
17678 17679 1 0.09450 207108.000000
17680 17681 1 0.10860 301825.392000
17681 17682 1 0.13986 296436.400000
17681 17690 1 0.13986 296436.400000
17682 17683 1 0.18850 35430.112000
17682 17684 1 0.13986 296436.400000
17683 17692 1 0.16500 119244.000000
17684 17685 1 0.10860 301825.392000
17684 17686 1 0.13986 296436.400000
17686 17687 1 0.10860 301825.392000
17686 17688 1 0.13986 296436.400000
17688 17689 1 0.10860 301825.392000
17688 17690 1 0.13986 296436.400000
17690 17691 1 0.10860 301825.392000
17692 17693 1 0.09450 207108.000000
17694 17695 1 0.10860 301825.392000
17695 17696 1 0.13986 296436.400000
17695 17704 1 0.13986 296436.400000
17696 17697 1 0.18850 35430.112000
17696 17698 1 0.13986 296436.400000
17697 17706 1 0.16500 119244.000000
17698 17699 1 0.10860 301825.392000
17698 17700 1 0.13986 296436.400000
17700 17701 1 0.10860 301825.392000
17700 17702 1 0.13986 296436.400000
17702 17703 1 0.10860 301825.392000
17702 17704 1 0.13986 296436.400000
17704 17705 1 0.10860 301825.392000
17706 17707 1 0.09450 207108.000000
17708 17709 1 0.10860 301825.392000
17709 17710 1 0.13986 296436.400000
17709 17718 1 0.13986 296436.400000
17710 17711 1 0.18850 35430.112000
17710 17712 1 0.13986 296436.400000
17711 17720 1 0.16500 119244.000000
17712 17713 1 0.10860 301825.392000
17712 17714 1 0.13986 296436.400000
17714 17715 1 0.10860 301825.392000
17714 17716 1 0.13986 296436.400000
17716 17717 1 0.10860 301825.392000
17716 17718 1 0.13986 296436.400000
17718 17719 1 0.10860 301825.392000
17720 17721 1 0.09450 207108.000000
17722 17723 1 0.10860 301825.392000
17723 17724 1 0.13986 296436.400000
17723 17732 1 0.13986 296436.400000
17724 17725 1 0.18850 35430.112000
17724 17726 1 0.13986 296436.400000
17725 17734 1 0.16500 119244.000000
17726 17727 1 0.10860 301825.392000
17726 17728 1 0.13986 296436.400000
17728 17729 1 0.10860 301825.392000
17728 17730 1 0.13986 296436.400000
17730 17731 1 0.10860 301825.392000
17730 17732 1 0.13986 296436.400000
17732 17733 1 0.10860 301825.392000
17734 17735 1 0.09450 207108.000000
17736 17737 1 0.10860 301825.392000
17737 17738 1 0.13986 296436.400000
17737 17746 1 0.13986 296436.400000
17738 17739 1 0.18850 35430.112000
17738 17740 1 0.13986 296436.400000
17739 17748 1 0.16500 119244.000000
17740 17741 1 0.10860 301825.392000
17740 17742 1 0.13986 296436.400000
17742 17743 1 0.10860 301825.392000
17742 17744 1 0.13986 296436.400000
17744 17745 1 0.10860 301825.392000
17744 17746 1 0.13986 296436.400000
17746 17747 1 0.10860 301825.392000
17748 17749 1 0.09450 207108.000000
17750 17751 1 0.10860 301825.392000
17751 17752 1 0.13986 296436.400000
17751 17760 1 0.13986 296436.400000
17752 17753 1 0.18850 35430.112000
17752 17754 1 0.13986 296436.400000
17753 17762 1 0.16500 119244.000000
17754 17755 1 0.10860 301825.392000
17754 17756 1 0.13986 296436.400000
17756 17757 1 0.10860 301825.392000
17756 17758 1 0.13986 296436.400000
17758 17759 1 0.10860 301825.392000
17758 17760 1 0.13986 296436.400000
17760 17761 1 0.10860 301825.392000
17762 17763 1 0.09450 207108.000000
17764 17765 1 0.10860 301825.392000
17765 17766 1 0.13986 296436.400000
17765 17774 1 0.13986 296436.400000
17766 17767 1 0.18850 35430.112000
17766 17768 1 0.13986 296436.400000
17767 17776 1 0.16500 119244.000000
17768 17769 1 0.10860 301825.392000
17768 17770 1 0.13986 296436.400000
17770 17771 1 0.10860 301825.392000
17770 17772 1 0.13986 296436.400000
17772 17773 1 0.10860 301825.392000
17772 17774 1 0.13986 296436.400000
17774 17775 1 0.10860 301825.392000
17776 17777 1 0.09450 207108.000000
17778 17779 1 0.10860 301825.392000
17779 17780 1 0.13986 296436.400000
17779 17788 1 0.13986 296436.400000
17780 17781 1 0.18850 35430.112000
17780 17782 1 0.13986 296436.400000
17781 17790 1 0.16500 119244.000000
17782 17783 1 0.10860 301825.392000
17782 17784 1 0.13986 296436.400000
17784 17785 1 0.10860 301825.392000
17784 17786 1 0.13986 296436.400000
17786 17787 1 0.10860 301825.392000
17786 17788 1 0.13986 296436.400000
17788 17789 1 0.10860 301825.392000
17790 17791 1 0.09450 207108.000000
17792 17793 1 0.10860 301825.392000
17793 17794 1 0.13986 296436.400000
17793 17802 1 0.13986 296436.400000
17794 17795 1 0.18850 35430.112000
17794 17796 1 0.13986 296436.400000
17795 17804 1 0.16500 119244.000000
17796 17797 1 0.10860 301825.392000
17796 17798 1 0.13986 296436.400000
17798 17799 1 0.10860 301825.392000
17798 17800 1 0.13986 296436.400000
17800 17801 1 0.10860 301825.392000
17800 17802 1 0.13986 296436.400000
17802 17803 1 0.10860 301825.392000
17804 17805 1 0.09450 207108.000000
17806 17807 1 0.10860 301825.392000
17807 17808 1 0.13986 296436.400000
17807 17816 1 0.13986 296436.400000
17808 17809 1 0.18850 35430.112000
17808 17810 1 0.13986 296436.400000
17809 17818 1 0.16500 119244.000000
17810 17811 1 0.10860 301825.392000
17810 17812 1 0.13986 296436.400000
17812 17813 1 0.10860 301825.392000
17812 17814 1 0.13986 296436.400000
17814 17815 1 0.10860 301825.392000
17814 17816 1 0.13986 296436.400000
17816 17817 1 0.10860 301825.392000
17818 17819 1 0.09450 207108.000000
17820 17821 1 0.10860 301825.392000
17821 17822 1 0.13986 296436.400000
17821 17830 1 0.13986 296436.400000
17822 17823 1 0.18850 35430.112000
17822 17824 1 0.13986 296436.400000
17823 17832 1 0.16500 119244.000000
17824 17825 1 0.10860 301825.392000
17824 17826 1 0.13986 296436.400000
17826 17827 1 0.10860 301825.392000
17826 17828 1 0.13986 296436.400000
17828 17829 1 0.10860 301825.392000
17828 17830 1 0.13986 296436.400000
17830 17831 1 0.10860 301825.392000
17832 17833 1 0.09450 207108.000000
17834 17835 1 0.10860 301825.392000
17835 17836 1 0.13986 296436.400000
17835 17844 1 0.13986 296436.400000
17836 17837 1 0.18850 35430.112000
17836 17838 1 0.13986 296436.400000
17837 17846 1 0.16500 119244.000000
17838 17839 1 0.10860 301825.392000
17838 17840 1 0.13986 296436.400000
17840 17841 1 0.10860 301825.392000
17840 17842 1 0.13986 296436.400000
17842 17843 1 0.10860 301825.392000
17842 17844 1 0.13986 296436.400000
17844 17845 1 0.10860 301825.392000
17846 17847 1 0.09450 207108.000000
17848 17849 1 0.10860 301825.392000
17849 17850 1 0.13986 296436.400000
17849 17858 1 0.13986 296436.400000
17850 17851 1 0.18850 35430.112000
17850 17852 1 0.13986 296436.400000
17851 17860 1 0.16500 119244.000000
17852 17853 1 0.10860 301825.392000
17852 17854 1 0.13986 296436.400000
17854 17855 1 0.10860 301825.392000
17854 17856 1 0.13986 296436.400000
17856 17857 1 0.10860 301825.392000
17856 17858 1 0.13986 296436.400000
17858 17859 1 0.10860 301825.392000
17860 17861 1 0.09450 207108.000000
17862 17863 1 0.10860 301825.392000
17863 17864 1 0.13986 296436.400000
17863 17872 1 0.13986 296436.400000
17864 17865 1 0.18850 35430.112000
17864 17866 1 0.13986 296436.400000
17865 17874 1 0.16500 119244.000000
17866 17867 1 0.10860 301825.392000
17866 17868 1 0.13986 296436.400000
17868 17869 1 0.10860 301825.392000
17868 17870 1 0.13986 296436.400000
17870 17871 1 0.10860 301825.392000
17870 17872 1 0.13986 296436.400000
17872 17873 1 0.10860 301825.392000
17874 17875 1 0.09450 207108.000000
17876 17877 1 0.10860 301825.392000
17877 17878 1 0.13986 296436.400000
17877 17886 1 0.13986 296436.400000
17878 17879 1 0.18850 35430.112000
17878 17880 1 0.13986 296436.400000
17879 17888 1 0.16500 119244.000000
17880 17881 1 0.10860 301825.392000
17880 17882 1 0.13986 296436.400000
17882 17883 1 0.10860 301825.392000
17882 17884 1 0.13986 296436.400000
17884 17885 1 0.10860 301825.392000
17884 17886 1 0.13986 296436.400000
17886 17887 1 0.10860 301825.392000
17888 17889 1 0.09450 207108.000000
17890 17891 1 0.10860 301825.392000
17891 17892 1 0.13986 296436.400000
17891 17900 1 0.13986 296436.400000
17892 17893 1 0.18850 35430.112000
17892 17894 1 0.13986 296436.400000
17893 17902 1 0.16500 119244.000000
17894 17895 1 0.10860 301825.392000
17894 17896 1 0.13986 296436.400000
17896 17897 1 0.10860 301825.392000
17896 17898 1 0.13986 296436.400000
17898 17899 1 0.10860 301825.392000
17898 17900 1 0.13986 296436.400000
17900 17901 1 0.10860 301825.392000
17902 17903 1 0.09450 207108.000000
17904 17905 1 0.10860 301825.392000
17905 17906 1 0.13986 296436.400000
17905 17914 1 0.13986 296436.400000
17906 17907 1 0.18850 35430.112000
17906 17908 1 0.13986 296436.400000
17907 17916 1 0.16500 119244.000000
17908 17909 1 0.10860 301825.392000
17908 17910 1 0.13986 296436.400000
17910 17911 1 0.10860 301825.392000
17910 17912 1 0.13986 296436.400000
17912 17913 1 0.10860 301825.392000
17912 17914 1 0.13986 296436.400000
17914 17915 1 0.10860 301825.392000
17916 17917 1 0.09450 207108.000000
17918 17919 1 0.10860 301825.392000
17919 17920 1 0.13986 296436.400000
17919 17928 1 0.13986 296436.400000
17920 17921 1 0.18850 35430.112000
17920 17922 1 0.13986 296436.400000
17921 17930 1 0.16500 119244.000000
17922 17923 1 0.10860 301825.392000
17922 17924 1 0.13986 296436.400000
17924 17925 1 0.10860 301825.392000
17924 17926 1 0.13986 296436.400000
17926 17927 1 0.10860 301825.392000
17926 17928 1 0.13986 296436.400000
17928 17929 1 0.10860 301825.392000
17930 17931 1 0.09450 207108.000000
17932 17933 1 0.10860 301825.392000
17933 17934 1 0.13986 296436.400000
17933 17942 1 0.13986 296436.400000
17934 17935 1 0.18850 35430.112000
17934 17936 1 0.13986 296436.400000
17935 17944 1 0.16500 119244.000000
17936 17937 1 0.10860 301825.392000
17936 17938 1 0.13986 296436.400000
17938 17939 1 0.10860 301825.392000
17938 17940 1 0.13986 296436.400000
17940 17941 1 0.10860 301825.392000
17940 17942 1 0.13986 296436.400000
17942 17943 1 0.10860 301825.392000
17944 17945 1 0.09450 207108.000000
17946 17947 1 0.10860 301825.392000
17947 17948 1 0.13986 296436.400000
17947 17956 1 0.13986 296436.400000
17948 17949 1 0.18850 35430.112000
17948 17950 1 0.13986 296436.400000
17949 17958 1 0.16500 119244.000000
17950 17951 1 0.10860 301825.392000
17950 17952 1 0.13986 296436.400000
17952 17953 1 0.10860 301825.392000
17952 17954 1 0.13986 296436.400000
17954 17955 1 0.10860 301825.392000
17954 17956 1 0.13986 296436.400000
17956 17957 1 0.10860 301825.392000
17958 17959 1 0.09450 207108.000000
17960 17961 1 0.10860 301825.392000
17961 17962 1 0.13986 296436.400000
17961 17970 1 0.13986 296436.400000
17962 17963 1 0.18850 35430.112000
17962 17964 1 0.13986 296436.400000
17963 17972 1 0.16500 119244.000000
17964 17965 1 0.10860 301825.392000
17964 17966 1 0.13986 296436.400000
17966 17967 1 0.10860 301825.392000
17966 17968 1 0.13986 296436.400000
17968 17969 1 0.10860 301825.392000
17968 17970 1 0.13986 296436.400000
17970 17971 1 0.10860 301825.392000
17972 17973 1 0.09450 207108.000000
17974 17975 1 0.10860 301825.392000
17975 17976 1 0.13986 296436.400000
17975 17984 1 0.13986 296436.400000
17976 17977 1 0.18850 35430.112000
17976 17978 1 0.13986 296436.400000
17977 17986 1 0.16500 119244.000000
17978 17979 1 0.10860 301825.392000
17978 17980 1 0.13986 296436.400000
17980 17981 1 0.10860 301825.392000
17980 17982 1 0.13986 296436.400000
17982 17983 1 0.10860 301825.392000
17982 17984 1 0.13986 296436.400000
17984 17985 1 0.10860 301825.392000
17986 17987 1 0.09450 207108.000000
17988 17989 1 0.10860 301825.392000
17989 17990 1 0.13986 296436.400000
17989 17998 1 0.13986 296436.400000
17990 17991 1 0.18850 35430.112000
17990 17992 1 0.13986 296436.400000
17991 18000 1 0.16500 119244.000000
17992 17993 1 0.10860 301825.392000
17992 17994 1 0.13986 296436.400000
17994 17995 1 0.10860 301825.392000
17994 17996 1 0.13986 296436.400000
17996 17997 1 0.10860 301825.392000
17996 17998 1 0.13986 296436.400000
17998 17999 1 0.10860 301825.392000
18000 18001 1 0.09450 207108.000000
18002 18003 1 0.10860 301825.392000
18003 18004 1 0.13986 296436.400000
18003 18012 1 0.13986 296436.400000
18004 18005 1 0.18850 35430.112000
18004 18006 1 0.13986 296436.400000
18005 18014 1 0.16500 119244.000000
18006 18007 1 0.10860 301825.392000
18006 18008 1 0.13986 296436.400000
18008 18009 1 0.10860 301825.392000
18008 18010 1 0.13986 296436.400000
18010 18011 1 0.10860 301825.392000
18010 18012 1 0.13986 296436.400000
18012 18013 1 0.10860 301825.392000
18014 18015 1 0.09450 207108.000000
18016 18017 1 0.10860 301825.392000
18017 18018 1 0.13986 296436.400000
18017 18026 1 0.13986 296436.400000
18018 18019 1 0.18850 35430.112000
18018 18020 1 0.13986 296436.400000
18019 18028 1 0.16500 119244.000000
18020 18021 1 0.10860 301825.392000
18020 18022 1 0.13986 296436.400000
18022 18023 1 0.10860 301825.392000
18022 18024 1 0.13986 296436.400000
18024 18025 1 0.10860 301825.392000
18024 18026 1 0.13986 296436.400000
18026 18027 1 0.10860 301825.392000
18028 18029 1 0.09450 207108.000000
18030 18031 1 0.10860 301825.392000
18031 18032 1 0.13986 296436.400000
18031 18040 1 0.13986 296436.400000
18032 18033 1 0.18850 35430.112000
18032 18034 1 0.13986 296436.400000
18033 18042 1 0.16500 119244.000000
18034 18035 1 0.10860 301825.392000
18034 18036 1 0.13986 296436.400000
18036 18037 1 0.10860 301825.392000
18036 18038 1 0.13986 296436.400000
18038 18039 1 0.10860 301825.392000
18038 18040 1 0.13986 296436.400000
18040 18041 1 0.10860 301825.392000
18042 18043 1 0.09450 207108.000000
18044 18045 1 0.10860 301825.392000
18045 18046 1 0.13986 296436.400000
18045 18054 1 0.13986 296436.400000
18046 18047 1 0.18850 35430.112000
18046 18048 1 0.13986 296436.400000
18047 18056 1 0.16500 119244.000000
18048 18049 1 0.10860 301825.392000
18048 18050 1 0.13986 296436.400000
18050 18051 1 0.10860 301825.392000
18050 18052 1 0.13986 296436.400000
18052 18053 1 0.10860 301825.392000
18052 18054 1 0.13986 296436.400000
18054 18055 1 0.10860 301825.392000
18056 18057 1 0.09450 207108.000000
18058 18059 1 0.10860 301825.392000
18059 18060 1 0.13986 296436.400000
18059 18068 1 0.13986 296436.400000
18060 18061 1 0.18850 35430.112000
18060 18062 1 0.13986 296436.400000
18061 18070 1 0.16500 119244.000000
18062 18063 1 0.10860 301825.392000
18062 18064 1 0.13986 296436.400000
18064 18065 1 0.10860 301825.392000
18064 18066 1 0.13986 296436.400000
18066 18067 1 0.10860 301825.392000
18066 18068 1 0.13986 296436.400000
18068 18069 1 0.10860 301825.392000
18070 18071 1 0.09450 207108.000000
18072 18073 1 0.10860 301825.392000
18073 18074 1 0.13986 296436.400000
18073 18082 1 0.13986 296436.400000
18074 18075 1 0.18850 35430.112000
18074 18076 1 0.13986 296436.400000
18075 18084 1 0.16500 119244.000000
18076 18077 1 0.10860 301825.392000
18076 18078 1 0.13986 296436.400000
18078 18079 1 0.10860 301825.392000
18078 18080 1 0.13986 296436.400000
18080 18081 1 0.10860 301825.392000
18080 18082 1 0.13986 296436.400000
18082 18083 1 0.10860 301825.392000
18084 18085 1 0.09450 207108.000000
18086 18087 1 0.10860 301825.392000
18087 18088 1 0.13986 296436.400000
18087 18096 1 0.13986 296436.400000
18088 18089 1 0.18850 35430.112000
18088 18090 1 0.13986 296436.400000
18089 18098 1 0.16500 119244.000000
18090 18091 1 0.10860 301825.392000
18090 18092 1 0.13986 296436.400000
18092 18093 1 0.10860 301825.392000
18092 18094 1 0.13986 296436.400000
18094 18095 1 0.10860 301825.392000
18094 18096 1 0.13986 296436.400000
18096 18097 1 0.10860 301825.392000
18098 18099 1 0.09450 207108.000000
18100 18101 1 0.10860 301825.392000
18101 18102 1 0.13986 296436.400000
18101 18110 1 0.13986 296436.400000
18102 18103 1 0.18850 35430.112000
18102 18104 1 0.13986 296436.400000
18103 18112 1 0.16500 119244.000000
18104 18105 1 0.10860 301825.392000
18104 18106 1 0.13986 296436.400000
18106 18107 1 0.10860 301825.392000
18106 18108 1 0.13986 296436.400000
18108 18109 1 0.10860 301825.392000
18108 18110 1 0.13986 296436.400000
18110 18111 1 0.10860 301825.392000
18112 18113 1 0.09450 207108.000000
18114 18115 1 0.10860 301825.392000
18115 18116 1 0.13986 296436.400000
18115 18124 1 0.13986 296436.400000
18116 18117 1 0.18850 35430.112000
18116 18118 1 0.13986 296436.400000
18117 18126 1 0.16500 119244.000000
18118 18119 1 0.10860 301825.392000
18118 18120 1 0.13986 296436.400000
18120 18121 1 0.10860 301825.392000
18120 18122 1 0.13986 296436.400000
18122 18123 1 0.10860 301825.392000
18122 18124 1 0.13986 296436.400000
18124 18125 1 0.10860 301825.392000
18126 18127 1 0.09450 207108.000000
18128 18129 1 0.10860 301825.392000
18129 18130 1 0.13986 296436.400000
18129 18138 1 0.13986 296436.400000
18130 18131 1 0.18850 35430.112000
18130 18132 1 0.13986 296436.400000
18131 18140 1 0.16500 119244.000000
18132 18133 1 0.10860 301825.392000
18132 18134 1 0.13986 296436.400000
18134 18135 1 0.10860 301825.392000
18134 18136 1 0.13986 296436.400000
18136 18137 1 0.10860 301825.392000
18136 18138 1 0.13986 296436.400000
18138 18139 1 0.10860 301825.392000
18140 18141 1 0.09450 207108.000000
18142 18143 1 0.10860 301825.392000
18143 18144 1 0.13986 296436.400000
18143 18152 1 0.13986 296436.400000
18144 18145 1 0.18850 35430.112000
18144 18146 1 0.13986 296436.400000
18145 18154 1 0.16500 119244.000000
18146 18147 1 0.10860 301825.392000
18146 18148 1 0.13986 296436.400000
18148 18149 1 0.10860 301825.392000
18148 18150 1 0.13986 296436.400000
18150 18151 1 0.10860 301825.392000
18150 18152 1 0.13986 296436.400000
18152 18153 1 0.10860 301825.392000
18154 18155 1 0.09450 207108.000000
18156 18157 1 0.10860 301825.392000
18157 18158 1 0.13986 296436.400000
18157 18166 1 0.13986 296436.400000
18158 18159 1 0.18850 35430.112000
18158 18160 1 0.13986 296436.400000
18159 18168 1 0.16500 119244.000000
18160 18161 1 0.10860 301825.392000
18160 18162 1 0.13986 296436.400000
18162 18163 1 0.10860 301825.392000
18162 18164 1 0.13986 296436.400000
18164 18165 1 0.10860 301825.392000
18164 18166 1 0.13986 296436.400000
18166 18167 1 0.10860 301825.392000
18168 18169 1 0.09450 207108.000000
18170 18171 1 0.10860 301825.392000
18171 18172 1 0.13986 296436.400000
18171 18180 1 0.13986 296436.400000
18172 18173 1 0.18850 35430.112000
18172 18174 1 0.13986 296436.400000
18173 18182 1 0.16500 119244.000000
18174 18175 1 0.10860 301825.392000
18174 18176 1 0.13986 296436.400000
18176 18177 1 0.10860 301825.392000
18176 18178 1 0.13986 296436.400000
18178 18179 1 0.10860 301825.392000
18178 18180 1 0.13986 296436.400000
18180 18181 1 0.10860 301825.392000
18182 18183 1 0.09450 207108.000000
18184 18185 1 0.10860 301825.392000
18185 18186 1 0.13986 296436.400000
18185 18194 1 0.13986 296436.400000
18186 18187 1 0.18850 35430.112000
18186 18188 1 0.13986 296436.400000
18187 18196 1 0.16500 119244.000000
18188 18189 1 0.10860 301825.392000
18188 18190 1 0.13986 296436.400000
18190 18191 1 0.10860 301825.392000
18190 18192 1 0.13986 296436.400000
18192 18193 1 0.10860 301825.392000
18192 18194 1 0.13986 296436.400000
18194 18195 1 0.10860 301825.392000
18196 18197 1 0.09450 207108.000000
18198 18199 1 0.10860 301825.392000
18199 18200 1 0.13986 296436.400000
18199 18208 1 0.13986 296436.400000
18200 18201 1 0.18850 35430.112000
18200 18202 1 0.13986 296436.400000
18201 18210 1 0.16500 119244.000000
18202 18203 1 0.10860 301825.392000
18202 18204 1 0.13986 296436.400000
18204 18205 1 0.10860 301825.392000
18204 18206 1 0.13986 296436.400000
18206 18207 1 0.10860 301825.392000
18206 18208 1 0.13986 296436.400000
18208 18209 1 0.10860 301825.392000
18210 18211 1 0.09450 207108.000000
18212 18213 1 0.10860 301825.392000
18213 18214 1 0.13986 296436.400000
18213 18222 1 0.13986 296436.400000
18214 18215 1 0.18850 35430.112000
18214 18216 1 0.13986 296436.400000
18215 18224 1 0.16500 119244.000000
18216 18217 1 0.10860 301825.392000
18216 18218 1 0.13986 296436.400000
18218 18219 1 0.10860 301825.392000
18218 18220 1 0.13986 296436.400000
18220 18221 1 0.10860 301825.392000
18220 18222 1 0.13986 296436.400000
18222 18223 1 0.10860 301825.392000
18224 18225 1 0.09450 207108.000000
18226 18227 1 0.10860 301825.392000
18227 18228 1 0.13986 296436.400000
18227 18236 1 0.13986 296436.400000
18228 18229 1 0.18850 35430.112000
18228 18230 1 0.13986 296436.400000
18229 18238 1 0.16500 119244.000000
18230 18231 1 0.10860 301825.392000
18230 18232 1 0.13986 296436.400000
18232 18233 1 0.10860 301825.392000
18232 18234 1 0.13986 296436.400000
18234 18235 1 0.10860 301825.392000
18234 18236 1 0.13986 296436.400000
18236 18237 1 0.10860 301825.392000
18238 18239 1 0.09450 207108.000000
18240 18241 1 0.10860 301825.392000
18241 18242 1 0.13986 296436.400000
18241 18250 1 0.13986 296436.400000
18242 18243 1 0.18850 35430.112000
18242 18244 1 0.13986 296436.400000
18243 18252 1 0.16500 119244.000000
18244 18245 1 0.10860 301825.392000
18244 18246 1 0.13986 296436.400000
18246 18247 1 0.10860 301825.392000
18246 18248 1 0.13986 296436.400000
18248 18249 1 0.10860 301825.392000
18248 18250 1 0.13986 296436.400000
18250 18251 1 0.10860 301825.392000
18252 18253 1 0.09450 207108.000000
18254 18255 1 0.10860 301825.392000
18255 18256 1 0.13986 296436.400000
18255 18264 1 0.13986 296436.400000
18256 18257 1 0.18850 35430.112000
18256 18258 1 0.13986 296436.400000
18257 18266 1 0.16500 119244.000000
18258 18259 1 0.10860 301825.392000
18258 18260 1 0.13986 296436.400000
18260 18261 1 0.10860 301825.392000
18260 18262 1 0.13986 296436.400000
18262 18263 1 0.10860 301825.392000
18262 18264 1 0.13986 296436.400000
18264 18265 1 0.10860 301825.392000
18266 18267 1 0.09450 207108.000000
18268 18269 1 0.10860 301825.392000
18269 18270 1 0.13986 296436.400000
18269 18278 1 0.13986 296436.400000
18270 18271 1 0.18850 35430.112000
18270 18272 1 0.13986 296436.400000
18271 18280 1 0.16500 119244.000000
18272 18273 1 0.10860 301825.392000
18272 18274 1 0.13986 296436.400000
18274 18275 1 0.10860 301825.392000
18274 18276 1 0.13986 296436.400000
18276 18277 1 0.10860 301825.392000
18276 18278 1 0.13986 296436.400000
18278 18279 1 0.10860 301825.392000
18280 18281 1 0.09450 207108.000000
18282 18283 1 0.10860 301825.392000
18283 18284 1 0.13986 296436.400000
18283 18292 1 0.13986 296436.400000
18284 18285 1 0.18850 35430.112000
18284 18286 1 0.13986 296436.400000
18285 18294 1 0.16500 119244.000000
18286 18287 1 0.10860 301825.392000
18286 18288 1 0.13986 296436.400000
18288 18289 1 0.10860 301825.392000
18288 18290 1 0.13986 296436.400000
18290 18291 1 0.10860 301825.392000
18290 18292 1 0.13986 296436.400000
18292 18293 1 0.10860 301825.392000
18294 18295 1 0.09450 207108.000000
18296 18297 1 0.10860 301825.392000
18297 18298 1 0.13986 296436.400000
18297 18306 1 0.13986 296436.400000
18298 18299 1 0.18850 35430.112000
18298 18300 1 0.13986 296436.400000
18299 18308 1 0.16500 119244.000000
18300 18301 1 0.10860 301825.392000
18300 18302 1 0.13986 296436.400000
18302 18303 1 0.10860 301825.392000
18302 18304 1 0.13986 296436.400000
18304 18305 1 0.10860 301825.392000
18304 18306 1 0.13986 296436.400000
18306 18307 1 0.10860 301825.392000
18308 18309 1 0.09450 207108.000000
18310 18311 1 0.10860 301825.392000
18311 18312 1 0.13986 296436.400000
18311 18320 1 0.13986 296436.400000
18312 18313 1 0.18850 35430.112000
18312 18314 1 0.13986 296436.400000
18314 18315 1 0.10860 301825.392000
18314 18316 1 0.13986 296436.400000
18316 18317 1 0.10860 301825.392000
18316 18318 1 0.13986 296436.400000
18318 18319 1 0.10860 301825.392000
18318 18320 1 0.13986 296436.400000
18320 18321 1 0.10860 301825.392000
18322 18323 1 0.10860 301825.392000
18323 18324 1 0.13986 296436.400000
18323 18332 1 0.13986 296436.400000
18324 18325 1 0.18850 35430.112000
18324 18326 1 0.13986 296436.400000
18326 18327 1 0.10860 301825.392000
18326 18328 1 0.13986 296436.400000
18328 18329 1 0.10860 301825.392000
18328 18330 1 0.13986 296436.400000
18330 18331 1 0.10860 301825.392000
18330 18332 1 0.13986 296436.400000
18332 18333 1 0.10860 301825.392000
18334 18335 1 0.10860 301825.392000
18335 18336 1 0.13986 296436.400000
18335 18344 1 0.13986 296436.400000
18336 18337 1 0.18850 35430.112000
18336 18338 1 0.13986 296436.400000
18338 18339 1 0.10860 301825.392000
18338 18340 1 0.13986 296436.400000
18340 18341 1 0.10860 301825.392000
18340 18342 1 0.13986 296436.400000
18342 18343 1 0.10860 301825.392000
18342 18344 1 0.13986 296436.400000
18344 18345 1 0.10860 301825.392000
18346 18347 1 0.10860 301825.392000
18347 18348 1 0.13986 296436.400000
18347 18356 1 0.13986 296436.400000
18348 18349 1 0.18850 35430.112000
18348 18350 1 0.13986 296436.400000
18350 18351 1 0.10860 301825.392000
18350 18352 1 0.13986 296436.400000
18352 18353 1 0.10860 301825.392000
18352 18354 1 0.13986 296436.400000
18354 18355 1 0.10860 301825.392000
18354 18356 1 0.13986 296436.400000
18356 18357 1 0.10860 301825.392000
18358 18359 1 0.10860 301825.392000
18359 18360 1 0.13986 296436.400000
18359 18368 1 0.13986 296436.400000
18360 18361 1 0.18850 35430.112000
18360 18362 1 0.13986 296436.400000
18362 18363 1 0.10860 301825.392000
18362 18364 1 0.13986 296436.400000
18364 18365 1 0.10860 301825.392000
18364 18366 1 0.13986 296436.400000
18366 18367 1 0.10860 301825.392000
18366 18368 1 0.13986 296436.400000
18368 18369 1 0.10860 301825.392000
18370 18371 1 0.10860 301825.392000
18371 18372 1 0.13986 296436.400000
18371 18380 1 0.13986 296436.400000
18372 18373 1 0.18850 35430.112000
18372 18374 1 0.13986 296436.400000
18374 18375 1 0.10860 301825.392000
18374 18376 1 0.13986 296436.400000
18376 18377 1 0.10860 301825.392000
18376 18378 1 0.13986 296436.400000
18378 18379 1 0.10860 301825.392000
18378 18380 1 0.13986 296436.400000
18380 18381 1 0.10860 301825.392000
18382 18383 1 0.10860 301825.392000
18383 18384 1 0.13986 296436.400000
18383 18392 1 0.13986 296436.400000
18384 18385 1 0.18850 35430.112000
18384 18386 1 0.13986 296436.400000
18386 18387 1 0.10860 301825.392000
18386 18388 1 0.13986 296436.400000
18388 18389 1 0.10860 301825.392000
18388 18390 1 0.13986 296436.400000
18390 18391 1 0.10860 301825.392000
18390 18392 1 0.13986 296436.400000
18392 18393 1 0.10860 301825.392000
18394 18395 1 0.10860 301825.392000
18395 18396 1 0.13986 296436.400000
18395 18404 1 0.13986 296436.400000
18396 18397 1 0.18850 35430.112000
18396 18398 1 0.13986 296436.400000
18398 18399 1 0.10860 301825.392000
18398 18400 1 0.13986 296436.400000
18400 18401 1 0.10860 301825.392000
18400 18402 1 0.13986 296436.400000
18402 18403 1 0.10860 301825.392000
18402 18404 1 0.13986 296436.400000
18404 18405 1 0.10860 301825.392000
18406 18407 1 0.10860 301825.392000
18407 18408 1 0.13986 296436.400000
18407 18416 1 0.13986 296436.400000
18408 18409 1 0.18850 35430.112000
18408 18410 1 0.13986 296436.400000
18410 18411 1 0.10860 301825.392000
18410 18412 1 0.13986 296436.400000
18412 18413 1 0.10860 301825.392000
18412 18414 1 0.13986 296436.400000
18414 18415 1 0.10860 301825.392000
18414 18416 1 0.13986 296436.400000
18416 18417 1 0.10860 301825.392000
18418 18419 1 0.10860 301825.392000
18419 18420 1 0.13986 296436.400000
18419 18428 1 0.13986 296436.400000
18420 18421 1 0.18850 35430.112000
18420 18422 1 0.13986 296436.400000
18422 18423 1 0.10860 301825.392000
18422 18424 1 0.13986 296436.400000
18424 18425 1 0.10860 301825.392000
18424 18426 1 0.13986 296436.400000
18426 18427 1 0.10860 301825.392000
18426 18428 1 0.13986 296436.400000
18428 18429 1 0.10860 301825.392000
18430 18431 1 0.10860 301825.392000
18431 18432 1 0.13986 296436.400000
18431 18440 1 0.13986 296436.400000
18432 18433 1 0.18850 35430.112000
18432 18434 1 0.13986 296436.400000
18434 18435 1 0.10860 301825.392000
18434 18436 1 0.13986 296436.400000
18436 18437 1 0.10860 301825.392000
18436 18438 1 0.13986 296436.400000
18438 18439 1 0.10860 301825.392000
18438 18440 1 0.13986 296436.400000
18440 18441 1 0.10860 301825.392000
18442 18443 1 0.10860 301825.392000
18443 18444 1 0.13986 296436.400000
18443 18452 1 0.13986 296436.400000
18444 18445 1 0.18850 35430.112000
18444 18446 1 0.13986 296436.400000
18446 18447 1 0.10860 301825.392000
18446 18448 1 0.13986 296436.400000
18448 18449 1 0.10860 301825.392000
18448 18450 1 0.13986 296436.400000
18450 18451 1 0.10860 301825.392000
18450 18452 1 0.13986 296436.400000
18452 18453 1 0.10860 301825.392000
18454 18455 1 0.10860 301825.392000
18455 18456 1 0.13986 296436.400000
18455 18464 1 0.13986 296436.400000
18456 18457 1 0.18850 35430.112000
18456 18458 1 0.13986 296436.400000
18458 18459 1 0.10860 301825.392000
18458 18460 1 0.13986 296436.400000
18460 18461 1 0.10860 301825.392000
18460 18462 1 0.13986 296436.400000
18462 18463 1 0.10860 301825.392000
18462 18464 1 0.13986 296436.400000
18464 18465 1 0.10860 301825.392000
18466 18467 1 0.10860 301825.392000
18467 18468 1 0.13986 296436.400000
18467 18476 1 0.13986 296436.400000
18468 18469 1 0.18850 35430.112000
18468 18470 1 0.13986 296436.400000
18470 18471 1 0.10860 301825.392000
18470 18472 1 0.13986 296436.400000
18472 18473 1 0.10860 301825.392000
18472 18474 1 0.13986 296436.400000
18474 18475 1 0.10860 301825.392000
18474 18476 1 0.13986 296436.400000
18476 18477 1 0.10860 301825.392000
18478 18479 1 0.10860 301825.392000
18479 18480 1 0.13986 296436.400000
18479 18488 1 0.13986 296436.400000
18480 18481 1 0.18850 35430.112000
18480 18482 1 0.13986 296436.400000
18482 18483 1 0.10860 301825.392000
18482 18484 1 0.13986 296436.400000
18484 18485 1 0.10860 301825.392000
18484 18486 1 0.13986 296436.400000
18486 18487 1 0.10860 301825.392000
18486 18488 1 0.13986 296436.400000
18488 18489 1 0.10860 301825.392000
18490 18491 1 0.10860 301825.392000
18491 18492 1 0.13986 296436.400000
18491 18500 1 0.13986 296436.400000
18492 18493 1 0.18850 35430.112000
18492 18494 1 0.13986 296436.400000
18494 18495 1 0.10860 301825.392000
18494 18496 1 0.13986 296436.400000
18496 18497 1 0.10860 301825.392000
18496 18498 1 0.13986 296436.400000
18498 18499 1 0.10860 301825.392000
18498 18500 1 0.13986 296436.400000
18500 18501 1 0.10860 301825.392000
18502 18503 1 0.10860 301825.392000
18503 18504 1 0.13986 296436.400000
18503 18512 1 0.13986 296436.400000
18504 18505 1 0.18850 35430.112000
18504 18506 1 0.13986 296436.400000
18506 18507 1 0.10860 301825.392000
18506 18508 1 0.13986 296436.400000
18508 18509 1 0.10860 301825.392000
18508 18510 1 0.13986 296436.400000
18510 18511 1 0.10860 301825.392000
18510 18512 1 0.13986 296436.400000
18512 18513 1 0.10860 301825.392000
18514 18515 1 0.10860 301825.392000
18515 18516 1 0.13986 296436.400000
18515 18524 1 0.13986 296436.400000
18516 18517 1 0.18850 35430.112000
18516 18518 1 0.13986 296436.400000
18518 18519 1 0.10860 301825.392000
18518 18520 1 0.13986 296436.400000
18520 18521 1 0.10860 301825.392000
18520 18522 1 0.13986 296436.400000
18522 18523 1 0.10860 301825.392000
18522 18524 1 0.13986 296436.400000
18524 18525 1 0.10860 301825.392000
18526 18527 1 0.10860 301825.392000
18527 18528 1 0.13986 296436.400000
18527 18536 1 0.13986 296436.400000
18528 18529 1 0.18850 35430.112000
18528 18530 1 0.13986 296436.400000
18530 18531 1 0.10860 301825.392000
18530 18532 1 0.13986 296436.400000
18532 18533 1 0.10860 301825.392000
18532 18534 1 0.13986 296436.400000
18534 18535 1 0.10860 301825.392000
18534 18536 1 0.13986 296436.400000
18536 18537 1 0.10860 301825.392000
18538 18539 1 0.10860 301825.392000
18539 18540 1 0.13986 296436.400000
18539 18548 1 0.13986 296436.400000
18540 18541 1 0.18850 35430.112000
18540 18542 1 0.13986 296436.400000
18542 18543 1 0.10860 301825.392000
18542 18544 1 0.13986 296436.400000
18544 18545 1 0.10860 301825.392000
18544 18546 1 0.13986 296436.400000
18546 18547 1 0.10860 301825.392000
18546 18548 1 0.13986 296436.400000
18548 18549 1 0.10860 301825.392000
18550 18551 1 0.10860 301825.392000
18551 18552 1 0.13986 296436.400000
18551 18560 1 0.13986 296436.400000
18552 18553 1 0.18850 35430.112000
18552 18554 1 0.13986 296436.400000
18554 18555 1 0.10860 301825.392000
18554 18556 1 0.13986 296436.400000
18556 18557 1 0.10860 301825.392000
18556 18558 1 0.13986 296436.400000
18558 18559 1 0.10860 301825.392000
18558 18560 1 0.13986 296436.400000
18560 18561 1 0.10860 301825.392000
18562 18563 1 0.10860 301825.392000
18563 18564 1 0.13986 296436.400000
18563 18572 1 0.13986 296436.400000
18564 18565 1 0.18850 35430.112000
18564 18566 1 0.13986 296436.400000
18566 18567 1 0.10860 301825.392000
18566 18568 1 0.13986 296436.400000
18568 18569 1 0.10860 301825.392000
18568 18570 1 0.13986 296436.400000
18570 18571 1 0.10860 301825.392000
18570 18572 1 0.13986 296436.400000
18572 18573 1 0.10860 301825.392000
18574 18575 1 0.10860 301825.392000
18575 18576 1 0.13986 296436.400000
18575 18584 1 0.13986 296436.400000
18576 18577 1 0.18850 35430.112000
18576 18578 1 0.13986 296436.400000
18578 18579 1 0.10860 301825.392000
18578 18580 1 0.13986 296436.400000
18580 18581 1 0.10860 301825.392000
18580 18582 1 0.13986 296436.400000
18582 18583 1 0.10860 301825.392000
18582 18584 1 0.13986 296436.400000
18584 18585 1 0.10860 301825.392000
18586 18587 1 0.10860 301825.392000
18587 18588 1 0.13986 296436.400000
18587 18596 1 0.13986 296436.400000
18588 18589 1 0.18850 35430.112000
18588 18590 1 0.13986 296436.400000
18590 18591 1 0.10860 301825.392000
18590 18592 1 0.13986 296436.400000
18592 18593 1 0.10860 301825.392000
18592 18594 1 0.13986 296436.400000
18594 18595 1 0.10860 301825.392000
18594 18596 1 0.13986 296436.400000
18596 18597 1 0.10860 301825.392000
18598 18599 1 0.10860 301825.392000
18599 18600 1 0.13986 296436.400000
18599 18608 1 0.13986 296436.400000
18600 18601 1 0.18850 35430.112000
18600 18602 1 0.13986 296436.400000
18602 18603 1 0.10860 301825.392000
18602 18604 1 0.13986 296436.400000
18604 18605 1 0.10860 301825.392000
18604 18606 1 0.13986 296436.400000
18606 18607 1 0.10860 301825.392000
18606 18608 1 0.13986 296436.400000
18608 18609 1 0.10860 301825.392000
18610 18611 1 0.10860 301825.392000
18611 18612 1 0.13986 296436.400000
18611 18620 1 0.13986 296436.400000
18612 18613 1 0.18850 35430.112000
18612 18614 1 0.13986 296436.400000
18614 18615 1 0.10860 301825.392000
18614 18616 1 0.13986 296436.400000
18616 18617 1 0.10860 301825.392000
18616 18618 1 0.13986 296436.400000
18618 18619 1 0.10860 301825.392000
18618 18620 1 0.13986 296436.400000
18620 18621 1 0.10860 301825.392000
18622 18623 1 0.10860 301825.392000
18623 18624 1 0.13986 296436.400000
18623 18632 1 0.13986 296436.400000
18624 18625 1 0.18850 35430.112000
18624 18626 1 0.13986 296436.400000
18626 18627 1 0.10860 301825.392000
18626 18628 1 0.13986 296436.400000
18628 18629 1 0.10860 301825.392000
18628 18630 1 0.13986 296436.400000
18630 18631 1 0.10860 301825.392000
18630 18632 1 0.13986 296436.400000
18632 18633 1 0.10860 301825.392000
18634 18635 1 0.10860 301825.392000
18635 18636 1 0.13986 296436.400000
18635 18644 1 0.13986 296436.400000
18636 18637 1 0.18850 35430.112000
18636 18638 1 0.13986 296436.400000
18638 18639 1 0.10860 301825.392000
18638 18640 1 0.13986 296436.400000
18640 18641 1 0.10860 301825.392000
18640 18642 1 0.13986 296436.400000
18642 18643 1 0.10860 301825.392000
18642 18644 1 0.13986 296436.400000
18644 18645 1 0.10860 301825.392000
18646 18647 1 0.10860 301825.392000
18647 18648 1 0.13986 296436.400000
18647 18656 1 0.13986 296436.400000
18648 18649 1 0.18850 35430.112000
18648 18650 1 0.13986 296436.400000
18650 18651 1 0.10860 301825.392000
18650 18652 1 0.13986 296436.400000
18652 18653 1 0.10860 301825.392000
18652 18654 1 0.13986 296436.400000
18654 18655 1 0.10860 301825.392000
18654 18656 1 0.13986 296436.400000
18656 18657 1 0.10860 301825.392000
18658 18659 1 0.10860 301825.392000
18659 18660 1 0.13986 296436.400000
18659 18668 1 0.13986 296436.400000
18660 18661 1 0.18850 35430.112000
18660 18662 1 0.13986 296436.400000
18662 18663 1 0.10860 301825.392000
18662 18664 1 0.13986 296436.400000
18664 18665 1 0.10860 301825.392000
18664 18666 1 0.13986 296436.400000
18666 18667 1 0.10860 301825.392000
18666 18668 1 0.13986 296436.400000
18668 18669 1 0.10860 301825.392000
18670 18671 1 0.10860 301825.392000
18671 18672 1 0.13986 296436.400000
18671 18680 1 0.13986 296436.400000
18672 18673 1 0.18850 35430.112000
18672 18674 1 0.13986 296436.400000
18674 18675 1 0.10860 301825.392000
18674 18676 1 0.13986 296436.400000
18676 18677 1 0.10860 301825.392000
18676 18678 1 0.13986 296436.400000
18678 18679 1 0.10860 301825.392000
18678 18680 1 0.13986 296436.400000
18680 18681 1 0.10860 301825.392000
18682 18683 1 0.10860 301825.392000
18683 18684 1 0.13986 296436.400000
18683 18692 1 0.13986 296436.400000
18684 18685 1 0.18850 35430.112000
18684 18686 1 0.13986 296436.400000
18686 18687 1 0.10860 301825.392000
18686 18688 1 0.13986 296436.400000
18688 18689 1 0.10860 301825.392000
18688 18690 1 0.13986 296436.400000
18690 18691 1 0.10860 301825.392000
18690 18692 1 0.13986 296436.400000
18692 18693 1 0.10860 301825.392000
18694 18695 1 0.10860 301825.392000
18695 18696 1 0.13986 296436.400000
18695 18704 1 0.13986 296436.400000
18696 18697 1 0.18850 35430.112000
18696 18698 1 0.13986 296436.400000
18698 18699 1 0.10860 301825.392000
18698 18700 1 0.13986 296436.400000
18700 18701 1 0.10860 301825.392000
18700 18702 1 0.13986 296436.400000
18702 18703 1 0.10860 301825.392000
18702 18704 1 0.13986 296436.400000
18704 18705 1 0.10860 301825.392000
18706 18707 1 0.10860 301825.392000
18707 18708 1 0.13986 296436.400000
18707 18716 1 0.13986 296436.400000
18708 18709 1 0.18850 35430.112000
18708 18710 1 0.13986 296436.400000
18710 18711 1 0.10860 301825.392000
18710 18712 1 0.13986 296436.400000
18712 18713 1 0.10860 301825.392000
18712 18714 1 0.13986 296436.400000
18714 18715 1 0.10860 301825.392000
18714 18716 1 0.13986 296436.400000
18716 18717 1 0.10860 301825.392000
18718 18719 1 0.10860 301825.392000
18719 18720 1 0.13986 296436.400000
18719 18728 1 0.13986 296436.400000
18720 18721 1 0.18850 35430.112000
18720 18722 1 0.13986 296436.400000
18722 18723 1 0.10860 301825.392000
18722 18724 1 0.13986 296436.400000
18724 18725 1 0.10860 301825.392000
18724 18726 1 0.13986 296436.400000
18726 18727 1 0.10860 301825.392000
18726 18728 1 0.13986 296436.400000
18728 18729 1 0.10860 301825.392000
18730 18731 1 0.10860 301825.392000
18731 18732 1 0.13986 296436.400000
18731 18740 1 0.13986 296436.400000
18732 18733 1 0.18850 35430.112000
18732 18734 1 0.13986 296436.400000
18734 18735 1 0.10860 301825.392000
18734 18736 1 0.13986 296436.400000
18736 18737 1 0.10860 301825.392000
18736 18738 1 0.13986 296436.400000
18738 18739 1 0.10860 301825.392000
18738 18740 1 0.13986 296436.400000
18740 18741 1 0.10860 301825.392000
18742 18743 1 0.10860 301825.392000
18743 18744 1 0.13986 296436.400000
18743 18752 1 0.13986 296436.400000
18744 18745 1 0.18850 35430.112000
18744 18746 1 0.13986 296436.400000
18746 18747 1 0.10860 301825.392000
18746 18748 1 0.13986 296436.400000
18748 18749 1 0.10860 301825.392000
18748 18750 1 0.13986 296436.400000
18750 18751 1 0.10860 301825.392000
18750 18752 1 0.13986 296436.400000
18752 18753 1 0.10860 301825.392000
18754 18755 1 0.10860 301825.392000
18755 18756 1 0.13986 296436.400000
18755 18764 1 0.13986 296436.400000
18756 18757 1 0.18850 35430.112000
18756 18758 1 0.13986 296436.400000
18758 18759 1 0.10860 301825.392000
18758 18760 1 0.13986 296436.400000
18760 18761 1 0.10860 301825.392000
18760 18762 1 0.13986 296436.400000
18762 18763 1 0.10860 301825.392000
18762 18764 1 0.13986 296436.400000
18764 18765 1 0.10860 301825.392000
18766 18767 1 0.10860 301825.392000
18767 18768 1 0.13986 296436.400000
18767 18776 1 0.13986 296436.400000
18768 18769 1 0.18850 35430.112000
18768 18770 1 0.13986 296436.400000
18770 18771 1 0.10860 301825.392000
18770 18772 1 0.13986 296436.400000
18772 18773 1 0.10860 301825.392000
18772 18774 1 0.13986 296436.400000
18774 18775 1 0.10860 301825.392000
18774 18776 1 0.13986 296436.400000
18776 18777 1 0.10860 301825.392000
18778 18779 1 0.10860 301825.392000
18779 18780 1 0.13986 296436.400000
18779 18788 1 0.13986 296436.400000
18780 18781 1 0.18850 35430.112000
18780 18782 1 0.13986 296436.400000
18782 18783 1 0.10860 301825.392000
18782 18784 1 0.13986 296436.400000
18784 18785 1 0.10860 301825.392000
18784 18786 1 0.13986 296436.400000
18786 18787 1 0.10860 301825.392000
18786 18788 1 0.13986 296436.400000
18788 18789 1 0.10860 301825.392000
18790 18791 1 0.10860 301825.392000
18791 18792 1 0.13986 296436.400000
18791 18800 1 0.13986 296436.400000
18792 18793 1 0.18850 35430.112000
18792 18794 1 0.13986 296436.400000
18794 18795 1 0.10860 301825.392000
18794 18796 1 0.13986 296436.400000
18796 18797 1 0.10860 301825.392000
18796 18798 1 0.13986 296436.400000
18798 18799 1 0.10860 301825.392000
18798 18800 1 0.13986 296436.400000
18800 18801 1 0.10860 301825.392000
18802 18803 1 0.10860 301825.392000
18803 18804 1 0.13986 296436.400000
18803 18812 1 0.13986 296436.400000
18804 18805 1 0.18850 35430.112000
18804 18806 1 0.13986 296436.400000
18806 18807 1 0.10860 301825.392000
18806 18808 1 0.13986 296436.400000
18808 18809 1 0.10860 301825.392000
18808 18810 1 0.13986 296436.400000
18810 18811 1 0.10860 301825.392000
18810 18812 1 0.13986 296436.400000
18812 18813 1 0.10860 301825.392000
18814 18815 1 0.10860 301825.392000
18815 18816 1 0.13986 296436.400000
18815 18824 1 0.13986 296436.400000
18816 18817 1 0.18850 35430.112000
18816 18818 1 0.13986 296436.400000
18818 18819 1 0.10860 301825.392000
18818 18820 1 0.13986 296436.400000
18820 18821 1 0.10860 301825.392000
18820 18822 1 0.13986 296436.400000
18822 18823 1 0.10860 301825.392000
18822 18824 1 0.13986 296436.400000
18824 18825 1 0.10860 301825.392000
18826 18827 1 0.10860 301825.392000
18827 18828 1 0.13986 296436.400000
18827 18836 1 0.13986 296436.400000
18828 18829 1 0.18850 35430.112000
18828 18830 1 0.13986 296436.400000
18830 18831 1 0.10860 301825.392000
18830 18832 1 0.13986 296436.400000
18832 18833 1 0.10860 301825.392000
18832 18834 1 0.13986 296436.400000
18834 18835 1 0.10860 301825.392000
18834 18836 1 0.13986 296436.400000
18836 18837 1 0.10860 301825.392000
18838 18839 1 0.10860 301825.392000
18839 18840 1 0.13986 296436.400000
18839 18848 1 0.13986 296436.400000
18840 18841 1 0.18850 35430.112000
18840 18842 1 0.13986 296436.400000
18842 18843 1 0.10860 301825.392000
18842 18844 1 0.13986 296436.400000
18844 18845 1 0.10860 301825.392000
18844 18846 1 0.13986 296436.400000
18846 18847 1 0.10860 301825.392000
18846 18848 1 0.13986 296436.400000
18848 18849 1 0.10860 301825.392000
18850 18851 1 0.10860 301825.392000
18851 18852 1 0.13986 296436.400000
18851 18860 1 0.13986 296436.400000
18852 18853 1 0.18850 35430.112000
18852 18854 1 0.13986 296436.400000
18854 18855 1 0.10860 301825.392000
18854 18856 1 0.13986 296436.400000
18856 18857 1 0.10860 301825.392000
18856 18858 1 0.13986 296436.400000
18858 18859 1 0.10860 301825.392000
18858 18860 1 0.13986 296436.400000
18860 18861 1 0.10860 301825.392000
18862 18863 1 0.10860 301825.392000
18863 18864 1 0.13986 296436.400000
18863 18872 1 0.13986 296436.400000
18864 18865 1 0.18850 35430.112000
18864 18866 1 0.13986 296436.400000
18866 18867 1 0.10860 301825.392000
18866 18868 1 0.13986 296436.400000
18868 18869 1 0.10860 301825.392000
18868 18870 1 0.13986 296436.400000
18870 18871 1 0.10860 301825.392000
18870 18872 1 0.13986 296436.400000
18872 18873 1 0.10860 301825.392000
18874 18875 1 0.10860 301825.392000
18875 18876 1 0.13986 296436.400000
18875 18884 1 0.13986 296436.400000
18876 18877 1 0.18850 35430.112000
18876 18878 1 0.13986 296436.400000
18878 18879 1 0.10860 301825.392000
18878 18880 1 0.13986 296436.400000
18880 18881 1 0.10860 301825.392000
18880 18882 1 0.13986 296436.400000
18882 18883 1 0.10860 301825.392000
18882 18884 1 0.13986 296436.400000
18884 18885 1 0.10860 301825.392000
18886 18887 1 0.10860 301825.392000
18887 18888 1 0.13986 296436.400000
18887 18896 1 0.13986 296436.400000
18888 18889 1 0.18850 35430.112000
18888 18890 1 0.13986 296436.400000
18890 18891 1 0.10860 301825.392000
18890 18892 1 0.13986 296436.400000
18892 18893 1 0.10860 301825.392000
18892 18894 1 0.13986 296436.400000
18894 18895 1 0.10860 301825.392000
18894 18896 1 0.13986 296436.400000
18896 18897 1 0.10860 301825.392000
18898 18899 1 0.10860 301825.392000
18899 18900 1 0.13986 296436.400000
18899 18908 1 0.13986 296436.400000
18900 18901 1 0.18850 35430.112000
18900 18902 1 0.13986 296436.400000
18902 18903 1 0.10860 301825.392000
18902 18904 1 0.13986 296436.400000
18904 18905 1 0.10860 301825.392000
18904 18906 1 0.13986 296436.400000
18906 18907 1 0.10860 301825.392000
18906 18908 1 0.13986 296436.400000
18908 18909 1 0.10860 301825.392000
18910 18911 1 0.10860 301825.392000
18911 18912 1 0.13986 296436.400000
18911 18920 1 0.13986 296436.400000
18912 18913 1 0.18850 35430.112000
18912 18914 1 0.13986 296436.400000
18914 18915 1 0.10860 301825.392000
18914 18916 1 0.13986 296436.400000
18916 18917 1 0.10860 301825.392000
18916 18918 1 0.13986 296436.400000
18918 18919 1 0.10860 301825.392000
18918 18920 1 0.13986 296436.400000
18920 18921 1 0.10860 301825.392000
18922 18923 1 0.10860 301825.392000
18923 18924 1 0.13986 296436.400000
18923 18932 1 0.13986 296436.400000
18924 18925 1 0.18850 35430.112000
18924 18926 1 0.13986 296436.400000
18926 18927 1 0.10860 301825.392000
18926 18928 1 0.13986 296436.400000
18928 18929 1 0.10860 301825.392000
18928 18930 1 0.13986 296436.400000
18930 18931 1 0.10860 301825.392000
18930 18932 1 0.13986 296436.400000
18932 18933 1 0.10860 301825.392000
18934 18935 1 0.10860 301825.392000
18935 18936 1 0.13986 296436.400000
18935 18944 1 0.13986 296436.400000
18936 18937 1 0.18850 35430.112000
18936 18938 1 0.13986 296436.400000
18938 18939 1 0.10860 301825.392000
18938 18940 1 0.13986 296436.400000
18940 18941 1 0.10860 301825.392000
18940 18942 1 0.13986 296436.400000
18942 18943 1 0.10860 301825.392000
18942 18944 1 0.13986 296436.400000
18944 18945 1 0.10860 301825.392000
18946 18947 1 0.10860 301825.392000
18947 18948 1 0.13986 296436.400000
18947 18956 1 0.13986 296436.400000
18948 18949 1 0.18850 35430.112000
18948 18950 1 0.13986 296436.400000
18950 18951 1 0.10860 301825.392000
18950 18952 1 0.13986 296436.400000
18952 18953 1 0.10860 301825.392000
18952 18954 1 0.13986 296436.400000
18954 18955 1 0.10860 301825.392000
18954 18956 1 0.13986 296436.400000
18956 18957 1 0.10860 301825.392000
18958 18959 1 0.10860 301825.392000
18959 18960 1 0.13986 296436.400000
18959 18968 1 0.13986 296436.400000
18960 18961 1 0.18850 35430.112000
18960 18962 1 0.13986 296436.400000
18962 18963 1 0.10860 301825.392000
18962 18964 1 0.13986 296436.400000
18964 18965 1 0.10860 301825.392000
18964 18966 1 0.13986 296436.400000
18966 18967 1 0.10860 301825.392000
18966 18968 1 0.13986 296436.400000
18968 18969 1 0.10860 301825.392000
18970 18971 1 0.10860 301825.392000
18971 18972 1 0.13986 296436.400000
18971 18980 1 0.13986 296436.400000
18972 18973 1 0.18850 35430.112000
18972 18974 1 0.13986 296436.400000
18974 18975 1 0.10860 301825.392000
18974 18976 1 0.13986 296436.400000
18976 18977 1 0.10860 301825.392000
18976 18978 1 0.13986 296436.400000
18978 18979 1 0.10860 301825.392000
18978 18980 1 0.13986 296436.400000
18980 18981 1 0.10860 301825.392000
18982 18983 1 0.10860 301825.392000
18983 18984 1 0.13986 296436.400000
18983 18992 1 0.13986 296436.400000
18984 18985 1 0.18850 35430.112000
18984 18986 1 0.13986 296436.400000
18986 18987 1 0.10860 301825.392000
18986 18988 1 0.13986 296436.400000
18988 18989 1 0.10860 301825.392000
18988 18990 1 0.13986 296436.400000
18990 18991 1 0.10860 301825.392000
18990 18992 1 0.13986 296436.400000
18992 18993 1 0.10860 301825.392000
18994 18995 1 0.10860 301825.392000
18995 18996 1 0.13986 296436.400000
18995 19004 1 0.13986 296436.400000
18996 18997 1 0.18850 35430.112000
18996 18998 1 0.13986 296436.400000
18998 18999 1 0.10860 301825.392000
18998 19000 1 0.13986 296436.400000
19000 19001 1 0.10860 301825.392000
19000 19002 1 0.13986 296436.400000
19002 19003 1 0.10860 301825.392000
19002 19004 1 0.13986 296436.400000
19004 19005 1 0.10860 301825.392000
19006 19007 1 0.10860 301825.392000
19007 19008 1 0.13986 296436.400000
19007 19016 1 0.13986 296436.400000
19008 19009 1 0.18850 35430.112000
19008 19010 1 0.13986 296436.400000
19010 19011 1 0.10860 301825.392000
19010 19012 1 0.13986 296436.400000
19012 19013 1 0.10860 301825.392000
19012 19014 1 0.13986 296436.400000
19014 19015 1 0.10860 301825.392000
19014 19016 1 0.13986 296436.400000
19016 19017 1 0.10860 301825.392000
19018 19019 1 0.10860 301825.392000
19019 19020 1 0.13986 296436.400000
19019 19028 1 0.13986 296436.400000
19020 19021 1 0.18850 35430.112000
19020 19022 1 0.13986 296436.400000
19022 19023 1 0.10860 301825.392000
19022 19024 1 0.13986 296436.400000
19024 19025 1 0.10860 301825.392000
19024 19026 1 0.13986 296436.400000
19026 19027 1 0.10860 301825.392000
19026 19028 1 0.13986 296436.400000
19028 19029 1 0.10860 301825.392000
19030 19031 1 0.10860 301825.392000
19031 19032 1 0.13986 296436.400000
19031 19040 1 0.13986 296436.400000
19032 19033 1 0.18850 35430.112000
19032 19034 1 0.13986 296436.400000
19034 19035 1 0.10860 301825.392000
19034 19036 1 0.13986 296436.400000
19036 19037 1 0.10860 301825.392000
19036 19038 1 0.13986 296436.400000
19038 19039 1 0.10860 301825.392000
19038 19040 1 0.13986 296436.400000
19040 19041 1 0.10860 301825.392000
19042 19043 1 0.10860 301825.392000
19043 19044 1 0.13986 296436.400000
19043 19052 1 0.13986 296436.400000
19044 19045 1 0.18850 35430.112000
19044 19046 1 0.13986 296436.400000
19046 19047 1 0.10860 301825.392000
19046 19048 1 0.13986 296436.400000
19048 19049 1 0.10860 301825.392000
19048 19050 1 0.13986 296436.400000
19050 19051 1 0.10860 301825.392000
19050 19052 1 0.13986 296436.400000
19052 19053 1 0.10860 301825.392000
19054 19055 1 0.10860 301825.392000
19055 19056 1 0.13986 296436.400000
19055 19064 1 0.13986 296436.400000
19056 19057 1 0.18850 35430.112000
19056 19058 1 0.13986 296436.400000
19058 19059 1 0.10860 301825.392000
19058 19060 1 0.13986 296436.400000
19060 19061 1 0.10860 301825.392000
19060 19062 1 0.13986 296436.400000
19062 19063 1 0.10860 301825.392000
19062 19064 1 0.13986 296436.400000
19064 19065 1 0.10860 301825.392000
19066 19067 1 0.10860 301825.392000
19067 19068 1 0.13986 296436.400000
19067 19076 1 0.13986 296436.400000
19068 19069 1 0.18850 35430.112000
19068 19070 1 0.13986 296436.400000
19070 19071 1 0.10860 301825.392000
19070 19072 1 0.13986 296436.400000
19072 19073 1 0.10860 301825.392000
19072 19074 1 0.13986 296436.400000
19074 19075 1 0.10860 301825.392000
19074 19076 1 0.13986 296436.400000
19076 19077 1 0.10860 301825.392000
19078 19079 1 0.10860 301825.392000
19079 19080 1 0.13986 296436.400000
19079 19088 1 0.13986 296436.400000
19080 19081 1 0.18850 35430.112000
19080 19082 1 0.13986 296436.400000
19082 19083 1 0.10860 301825.392000
19082 19084 1 0.13986 296436.400000
19084 19085 1 0.10860 301825.392000
19084 19086 1 0.13986 296436.400000
19086 19087 1 0.10860 301825.392000
19086 19088 1 0.13986 296436.400000
19088 19089 1 0.10860 301825.392000
19090 19091 1 0.10860 301825.392000
19091 19092 1 0.13986 296436.400000
19091 19100 1 0.13986 296436.400000
19092 19093 1 0.18850 35430.112000
19092 19094 1 0.13986 296436.400000
19094 19095 1 0.10860 301825.392000
19094 19096 1 0.13986 296436.400000
19096 19097 1 0.10860 301825.392000
19096 19098 1 0.13986 296436.400000
19098 19099 1 0.10860 301825.392000
19098 19100 1 0.13986 296436.400000
19100 19101 1 0.10860 301825.392000
19102 19103 1 0.10860 301825.392000
19103 19104 1 0.13986 296436.400000
19103 19112 1 0.13986 296436.400000
19104 19105 1 0.18850 35430.112000
19104 19106 1 0.13986 296436.400000
19106 19107 1 0.10860 301825.392000
19106 19108 1 0.13986 296436.400000
19108 19109 1 0.10860 301825.392000
19108 19110 1 0.13986 296436.400000
19110 19111 1 0.10860 301825.392000
19110 19112 1 0.13986 296436.400000
19112 19113 1 0.10860 301825.392000
19114 19115 1 0.10860 301825.392000
19115 19116 1 0.13986 296436.400000
19115 19124 1 0.13986 296436.400000
19116 19117 1 0.18850 35430.112000
19116 19118 1 0.13986 296436.400000
19118 19119 1 0.10860 301825.392000
19118 19120 1 0.13986 296436.400000
19120 19121 1 0.10860 301825.392000
19120 19122 1 0.13986 296436.400000
19122 19123 1 0.10860 301825.392000
19122 19124 1 0.13986 296436.400000
19124 19125 1 0.10860 301825.392000
19126 19127 1 0.10860 301825.392000
19127 19128 1 0.13986 296436.400000
19127 19136 1 0.13986 296436.400000
19128 19129 1 0.18850 35430.112000
19128 19130 1 0.13986 296436.400000
19130 19131 1 0.10860 301825.392000
19130 19132 1 0.13986 296436.400000
19132 19133 1 0.10860 301825.392000
19132 19134 1 0.13986 296436.400000
19134 19135 1 0.10860 301825.392000
19134 19136 1 0.13986 296436.400000
19136 19137 1 0.10860 301825.392000
19138 19139 1 0.10860 301825.392000
19139 19140 1 0.13986 296436.400000
19139 19148 1 0.13986 296436.400000
19140 19141 1 0.18850 35430.112000
19140 19142 1 0.13986 296436.400000
19142 19143 1 0.10860 301825.392000
19142 19144 1 0.13986 296436.400000
19144 19145 1 0.10860 301825.392000
19144 19146 1 0.13986 296436.400000
19146 19147 1 0.10860 301825.392000
19146 19148 1 0.13986 296436.400000
19148 19149 1 0.10860 301825.392000
19150 19151 1 0.10860 301825.392000
19151 19152 1 0.13986 296436.400000
19151 19160 1 0.13986 296436.400000
19152 19153 1 0.18850 35430.112000
19152 19154 1 0.13986 296436.400000
19154 19155 1 0.10860 301825.392000
19154 19156 1 0.13986 296436.400000
19156 19157 1 0.10860 301825.392000
19156 19158 1 0.13986 296436.400000
19158 19159 1 0.10860 301825.392000
19158 19160 1 0.13986 296436.400000
19160 19161 1 0.10860 301825.392000
19162 19163 1 0.10860 301825.392000
19163 19164 1 0.13986 296436.400000
19163 19172 1 0.13986 296436.400000
19164 19165 1 0.18850 35430.112000
19164 19166 1 0.13986 296436.400000
19166 19167 1 0.10860 301825.392000
19166 19168 1 0.13986 296436.400000
19168 19169 1 0.10860 301825.392000
19168 19170 1 0.13986 296436.400000
19170 19171 1 0.10860 301825.392000
19170 19172 1 0.13986 296436.400000
19172 19173 1 0.10860 301825.392000
19174 19175 1 0.10860 301825.392000
19175 19176 1 0.13986 296436.400000
19175 19184 1 0.13986 296436.400000
19176 19177 1 0.18850 35430.112000
19176 19178 1 0.13986 296436.400000
19178 19179 1 0.10860 301825.392000
19178 19180 1 0.13986 296436.400000
19180 19181 1 0.10860 301825.392000
19180 19182 1 0.13986 296436.400000
19182 19183 1 0.10860 301825.392000
19182 19184 1 0.13986 296436.400000
19184 19185 1 0.10860 301825.392000
19186 19187 1 0.10860 301825.392000
19187 19188 1 0.13986 296436.400000
19187 19196 1 0.13986 296436.400000
19188 19189 1 0.18850 35430.112000
19188 19190 1 0.13986 296436.400000
19190 19191 1 0.10860 301825.392000
19190 19192 1 0.13986 296436.400000
19192 19193 1 0.10860 301825.392000
19192 19194 1 0.13986 296436.400000
19194 19195 1 0.10860 301825.392000
19194 19196 1 0.13986 296436.400000
19196 19197 1 0.10860 301825.392000
19198 19199 1 0.10860 301825.392000
19199 19200 1 0.13986 296436.400000
19199 19208 1 0.13986 296436.400000
19200 19201 1 0.18850 35430.112000
19200 19202 1 0.13986 296436.400000
19202 19203 1 0.10860 301825.392000
19202 19204 1 0.13986 296436.400000
19204 19205 1 0.10860 301825.392000
19204 19206 1 0.13986 296436.400000
19206 19207 1 0.10860 301825.392000
19206 19208 1 0.13986 296436.400000
19208 19209 1 0.10860 301825.392000
19210 19211 1 0.10860 301825.392000
19211 19212 1 0.13986 296436.400000
19211 19220 1 0.13986 296436.400000
19212 19213 1 0.18850 35430.112000
19212 19214 1 0.13986 296436.400000
19214 19215 1 0.10860 301825.392000
19214 19216 1 0.13986 296436.400000
19216 19217 1 0.10860 301825.392000
19216 19218 1 0.13986 296436.400000
19218 19219 1 0.10860 301825.392000
19218 19220 1 0.13986 296436.400000
19220 19221 1 0.10860 301825.392000
19222 19223 1 0.10860 301825.392000
19223 19224 1 0.13986 296436.400000
19223 19232 1 0.13986 296436.400000
19224 19225 1 0.18850 35430.112000
19224 19226 1 0.13986 296436.400000
19226 19227 1 0.10860 301825.392000
19226 19228 1 0.13986 296436.400000
19228 19229 1 0.10860 301825.392000
19228 19230 1 0.13986 296436.400000
19230 19231 1 0.10860 301825.392000
19230 19232 1 0.13986 296436.400000
19232 19233 1 0.10860 301825.392000
19234 19235 1 0.10860 301825.392000
19235 19236 1 0.13986 296436.400000
19235 19244 1 0.13986 296436.400000
19236 19237 1 0.18850 35430.112000
19236 19238 1 0.13986 296436.400000
19238 19239 1 0.10860 301825.392000
19238 19240 1 0.13986 296436.400000
19240 19241 1 0.10860 301825.392000
19240 19242 1 0.13986 296436.400000
19242 19243 1 0.10860 301825.392000
19242 19244 1 0.13986 296436.400000
19244 19245 1 0.10860 301825.392000
19246 19247 1 0.10860 301825.392000
19247 19248 1 0.13986 296436.400000
19247 19256 1 0.13986 296436.400000
19248 19249 1 0.18850 35430.112000
19248 19250 1 0.13986 296436.400000
19250 19251 1 0.10860 301825.392000
19250 19252 1 0.13986 296436.400000
19252 19253 1 0.10860 301825.392000
19252 19254 1 0.13986 296436.400000
19254 19255 1 0.10860 301825.392000
19254 19256 1 0.13986 296436.400000
19256 19257 1 0.10860 301825.392000
19258 19259 1 0.10860 301825.392000
19259 19260 1 0.13986 296436.400000
19259 19268 1 0.13986 296436.400000
19260 19261 1 0.18850 35430.112000
19260 19262 1 0.13986 296436.400000
19262 19263 1 0.10860 301825.392000
19262 19264 1 0.13986 296436.400000
19264 19265 1 0.10860 301825.392000
19264 19266 1 0.13986 296436.400000
19266 19267 1 0.10860 301825.392000
19266 19268 1 0.13986 296436.400000
19268 19269 1 0.10860 301825.392000
19270 19271 1 0.10860 301825.392000
19271 19272 1 0.13986 296436.400000
19271 19280 1 0.13986 296436.400000
19272 19273 1 0.18850 35430.112000
19272 19274 1 0.13986 296436.400000
19274 19275 1 0.10860 301825.392000
19274 19276 1 0.13986 296436.400000
19276 19277 1 0.10860 301825.392000
19276 19278 1 0.13986 296436.400000
19278 19279 1 0.10860 301825.392000
19278 19280 1 0.13986 296436.400000
19280 19281 1 0.10860 301825.392000
19282 19283 1 0.10860 301825.392000
19283 19284 1 0.13986 296436.400000
19283 19292 1 0.13986 296436.400000
19284 19285 1 0.18850 35430.112000
19284 19286 1 0.13986 296436.400000
19286 19287 1 0.10860 301825.392000
19286 19288 1 0.13986 296436.400000
19288 19289 1 0.10860 301825.392000
19288 19290 1 0.13986 296436.400000
19290 19291 1 0.10860 301825.392000
19290 19292 1 0.13986 296436.400000
19292 19293 1 0.10860 301825.392000
19294 19295 1 0.10860 301825.392000
19295 19296 1 0.13986 296436.400000
19295 19304 1 0.13986 296436.400000
19296 19297 1 0.18850 35430.112000
19296 19298 1 0.13986 296436.400000
19298 19299 1 0.10860 301825.392000
19298 19300 1 0.13986 296436.400000
19300 19301 1 0.10860 301825.392000
19300 19302 1 0.13986 296436.400000
19302 19303 1 0.10860 301825.392000
19302 19304 1 0.13986 296436.400000
19304 19305 1 0.10860 301825.392000
19306 19307 1 0.10860 301825.392000
19307 19308 1 0.13986 296436.400000
19307 19316 1 0.13986 296436.400000
19308 19309 1 0.18850 35430.112000
19308 19310 1 0.13986 296436.400000
19310 19311 1 0.10860 301825.392000
19310 19312 1 0.13986 296436.400000
19312 19313 1 0.10860 301825.392000
19312 19314 1 0.13986 296436.400000
19314 19315 1 0.10860 301825.392000
19314 19316 1 0.13986 296436.400000
19316 19317 1 0.10860 301825.392000
19318 19319 1 0.10860 301825.392000
19319 19320 1 0.13986 296436.400000
19319 19328 1 0.13986 296436.400000
19320 19321 1 0.18850 35430.112000
19320 19322 1 0.13986 296436.400000
19322 19323 1 0.10860 301825.392000
19322 19324 1 0.13986 296436.400000
19324 19325 1 0.10860 301825.392000
19324 19326 1 0.13986 296436.400000
19326 19327 1 0.10860 301825.392000
19326 19328 1 0.13986 296436.400000
19328 19329 1 0.10860 301825.392000
19330 19331 1 0.10860 301825.392000
19331 19332 1 0.13986 296436.400000
19331 19340 1 0.13986 296436.400000
19332 19333 1 0.18850 35430.112000
19332 19334 1 0.13986 296436.400000
19334 19335 1 0.10860 301825.392000
19334 19336 1 0.13986 296436.400000
19336 19337 1 0.10860 301825.392000
19336 19338 1 0.13986 296436.400000
19338 19339 1 0.10860 301825.392000
19338 19340 1 0.13986 296436.400000
19340 19341 1 0.10860 301825.392000
19342 19343 1 0.10860 301825.392000
19343 19344 1 0.13986 296436.400000
19343 19352 1 0.13986 296436.400000
19344 19345 1 0.18850 35430.112000
19344 19346 1 0.13986 296436.400000
19346 19347 1 0.10860 301825.392000
19346 19348 1 0.13986 296436.400000
19348 19349 1 0.10860 301825.392000
19348 19350 1 0.13986 296436.400000
19350 19351 1 0.10860 301825.392000
19350 19352 1 0.13986 296436.400000
19352 19353 1 0.10860 301825.392000
19354 19355 1 0.10860 301825.392000
19355 19356 1 0.13986 296436.400000
19355 19364 1 0.13986 296436.400000
19356 19357 1 0.18850 35430.112000
19356 19358 1 0.13986 296436.400000
19358 19359 1 0.10860 301825.392000
19358 19360 1 0.13986 296436.400000
19360 19361 1 0.10860 301825.392000
19360 19362 1 0.13986 296436.400000
19362 19363 1 0.10860 301825.392000
19362 19364 1 0.13986 296436.400000
19364 19365 1 0.10860 301825.392000
19366 19367 1 0.10860 301825.392000
19367 19368 1 0.13986 296436.400000
19367 19376 1 0.13986 296436.400000
19368 19369 1 0.18850 35430.112000
19368 19370 1 0.13986 296436.400000
19370 19371 1 0.10860 301825.392000
19370 19372 1 0.13986 296436.400000
19372 19373 1 0.10860 301825.392000
19372 19374 1 0.13986 296436.400000
19374 19375 1 0.10860 301825.392000
19374 19376 1 0.13986 296436.400000
19376 19377 1 0.10860 301825.392000
19378 19379 1 0.10860 301825.392000
19379 19380 1 0.13986 296436.400000
19379 19388 1 0.13986 296436.400000
19380 19381 1 0.18850 35430.112000
19380 19382 1 0.13986 296436.400000
19382 19383 1 0.10860 301825.392000
19382 19384 1 0.13986 296436.400000
19384 19385 1 0.10860 301825.392000
19384 19386 1 0.13986 296436.400000
19386 19387 1 0.10860 301825.392000
19386 19388 1 0.13986 296436.400000
19388 19389 1 0.10860 301825.392000
19390 19391 1 0.10860 301825.392000
19391 19392 1 0.13986 296436.400000
19391 19400 1 0.13986 296436.400000
19392 19393 1 0.18850 35430.112000
19392 19394 1 0.13986 296436.400000
19394 19395 1 0.10860 301825.392000
19394 19396 1 0.13986 296436.400000
19396 19397 1 0.10860 301825.392000
19396 19398 1 0.13986 296436.400000
19398 19399 1 0.10860 301825.392000
19398 19400 1 0.13986 296436.400000
19400 19401 1 0.10860 301825.392000
19402 19403 1 0.10860 301825.392000
19403 19404 1 0.13986 296436.400000
19403 19412 1 0.13986 296436.400000
19404 19405 1 0.18850 35430.112000
19404 19406 1 0.13986 296436.400000
19406 19407 1 0.10860 301825.392000
19406 19408 1 0.13986 296436.400000
19408 19409 1 0.10860 301825.392000
19408 19410 1 0.13986 296436.400000
19410 19411 1 0.10860 301825.392000
19410 19412 1 0.13986 296436.400000
19412 19413 1 0.10860 301825.392000
19414 19415 1 0.10860 301825.392000
19415 19416 1 0.13986 296436.400000
19415 19424 1 0.13986 296436.400000
19416 19417 1 0.18850 35430.112000
19416 19418 1 0.13986 296436.400000
19418 19419 1 0.10860 301825.392000
19418 19420 1 0.13986 296436.400000
19420 19421 1 0.10860 301825.392000
19420 19422 1 0.13986 296436.400000
19422 19423 1 0.10860 301825.392000
19422 19424 1 0.13986 296436.400000
19424 19425 1 0.10860 301825.392000
19426 19427 1 0.10860 301825.392000
19427 19428 1 0.13986 296436.400000
19427 19436 1 0.13986 296436.400000
19428 19429 1 0.18850 35430.112000
19428 19430 1 0.13986 296436.400000
19430 19431 1 0.10860 301825.392000
19430 19432 1 0.13986 296436.400000
19432 19433 1 0.10860 301825.392000
19432 19434 1 0.13986 296436.400000
19434 19435 1 0.10860 301825.392000
19434 19436 1 0.13986 296436.400000
19436 19437 1 0.10860 301825.392000
19438 19439 1 0.10860 301825.392000
19439 19440 1 0.13986 296436.400000
19439 19448 1 0.13986 296436.400000
19440 19441 1 0.18850 35430.112000
19440 19442 1 0.13986 296436.400000
19442 19443 1 0.10860 301825.392000
19442 19444 1 0.13986 296436.400000
19444 19445 1 0.10860 301825.392000
19444 19446 1 0.13986 296436.400000
19446 19447 1 0.10860 301825.392000
19446 19448 1 0.13986 296436.400000
19448 19449 1 0.10860 301825.392000
19450 19451 1 0.10860 301825.392000
19451 19452 1 0.13986 296436.400000
19451 19460 1 0.13986 296436.400000
19452 19453 1 0.18850 35430.112000
19452 19454 1 0.13986 296436.400000
19454 19455 1 0.10860 301825.392000
19454 19456 1 0.13986 296436.400000
19456 19457 1 0.10860 301825.392000
19456 19458 1 0.13986 296436.400000
19458 19459 1 0.10860 301825.392000
19458 19460 1 0.13986 296436.400000
19460 19461 1 0.10860 301825.392000
19462 19463 1 0.10860 301825.392000
19463 19464 1 0.13986 296436.400000
19463 19472 1 0.13986 296436.400000
19464 19465 1 0.18850 35430.112000
19464 19466 1 0.13986 296436.400000
19466 19467 1 0.10860 301825.392000
19466 19468 1 0.13986 296436.400000
19468 19469 1 0.10860 301825.392000
19468 19470 1 0.13986 296436.400000
19470 19471 1 0.10860 301825.392000
19470 19472 1 0.13986 296436.400000
19472 19473 1 0.10860 301825.392000
19474 19475 1 0.10860 301825.392000
19475 19476 1 0.13986 296436.400000
19475 19484 1 0.13986 296436.400000
19476 19477 1 0.18850 35430.112000
19476 19478 1 0.13986 296436.400000
19478 19479 1 0.10860 301825.392000
19478 19480 1 0.13986 296436.400000
19480 19481 1 0.10860 301825.392000
19480 19482 1 0.13986 296436.400000
19482 19483 1 0.10860 301825.392000
19482 19484 1 0.13986 296436.400000
19484 19485 1 0.10860 301825.392000
19486 19487 1 0.10860 301825.392000
19487 19488 1 0.13986 296436.400000
19487 19496 1 0.13986 296436.400000
19488 19489 1 0.18850 35430.112000
19488 19490 1 0.13986 296436.400000
19490 19491 1 0.10860 301825.392000
19490 19492 1 0.13986 296436.400000
19492 19493 1 0.10860 301825.392000
19492 19494 1 0.13986 296436.400000
19494 19495 1 0.10860 301825.392000
19494 19496 1 0.13986 296436.400000
19496 19497 1 0.10860 301825.392000
19498 19499 1 0.10860 301825.392000
19499 19500 1 0.13986 296436.400000
19499 19508 1 0.13986 296436.400000
19500 19501 1 0.18850 35430.112000
19500 19502 1 0.13986 296436.400000
19502 19503 1 0.10860 301825.392000
19502 19504 1 0.13986 296436.400000
19504 19505 1 0.10860 301825.392000
19504 19506 1 0.13986 296436.400000
19506 19507 1 0.10860 301825.392000
19506 19508 1 0.13986 296436.400000
19508 19509 1 0.10860 301825.392000
19510 19511 1 0.10860 301825.392000
19511 19512 1 0.13986 296436.400000
19511 19520 1 0.13986 296436.400000
19512 19513 1 0.18850 35430.112000
19512 19514 1 0.13986 296436.400000
19514 19515 1 0.10860 301825.392000
19514 19516 1 0.13986 296436.400000
19516 19517 1 0.10860 301825.392000
19516 19518 1 0.13986 296436.400000
19518 19519 1 0.10860 301825.392000
19518 19520 1 0.13986 296436.400000
19520 19521 1 0.10860 301825.392000
19522 19523 1 0.10860 301825.392000
19523 19524 1 0.13986 296436.400000
19523 19532 1 0.13986 296436.400000
19524 19525 1 0.18850 35430.112000
19524 19526 1 0.13986 296436.400000
19526 19527 1 0.10860 301825.392000
19526 19528 1 0.13986 296436.400000
19528 19529 1 0.10860 301825.392000
19528 19530 1 0.13986 296436.400000
19530 19531 1 0.10860 301825.392000
19530 19532 1 0.13986 296436.400000
19532 19533 1 0.10860 301825.392000
19534 19535 1 0.10860 301825.392000
19535 19536 1 0.13986 296436.400000
19535 19544 1 0.13986 296436.400000
19536 19537 1 0.18850 35430.112000
19536 19538 1 0.13986 296436.400000
19538 19539 1 0.10860 301825.392000
19538 19540 1 0.13986 296436.400000
19540 19541 1 0.10860 301825.392000
19540 19542 1 0.13986 296436.400000
19542 19543 1 0.10860 301825.392000
19542 19544 1 0.13986 296436.400000
19544 19545 1 0.10860 301825.392000
19546 19547 1 0.10860 301825.392000
19547 19548 1 0.13986 296436.400000
19547 19556 1 0.13986 296436.400000
19548 19549 1 0.18850 35430.112000
19548 19550 1 0.13986 296436.400000
19550 19551 1 0.10860 301825.392000
19550 19552 1 0.13986 296436.400000
19552 19553 1 0.10860 301825.392000
19552 19554 1 0.13986 296436.400000
19554 19555 1 0.10860 301825.392000
19554 19556 1 0.13986 296436.400000
19556 19557 1 0.10860 301825.392000
19558 19559 1 0.10860 301825.392000
19559 19560 1 0.13986 296436.400000
19559 19568 1 0.13986 296436.400000
19560 19561 1 0.18850 35430.112000
19560 19562 1 0.13986 296436.400000
19562 19563 1 0.10860 301825.392000
19562 19564 1 0.13986 296436.400000
19564 19565 1 0.10860 301825.392000
19564 19566 1 0.13986 296436.400000
19566 19567 1 0.10860 301825.392000
19566 19568 1 0.13986 296436.400000
19568 19569 1 0.10860 301825.392000
19570 19571 1 0.10860 301825.392000
19571 19572 1 0.13986 296436.400000
19571 19580 1 0.13986 296436.400000
19572 19573 1 0.18850 35430.112000
19572 19574 1 0.13986 296436.400000
19574 19575 1 0.10860 301825.392000
19574 19576 1 0.13986 296436.400000
19576 19577 1 0.10860 301825.392000
19576 19578 1 0.13986 296436.400000
19578 19579 1 0.10860 301825.392000
19578 19580 1 0.13986 296436.400000
19580 19581 1 0.10860 301825.392000
19582 19583 1 0.10860 301825.392000
19583 19584 1 0.13986 296436.400000
19583 19592 1 0.13986 296436.400000
19584 19585 1 0.18850 35430.112000
19584 19586 1 0.13986 296436.400000
19586 19587 1 0.10860 301825.392000
19586 19588 1 0.13986 296436.400000
19588 19589 1 0.10860 301825.392000
19588 19590 1 0.13986 296436.400000
19590 19591 1 0.10860 301825.392000
19590 19592 1 0.13986 296436.400000
19592 19593 1 0.10860 301825.392000
19594 19595 1 0.10860 301825.392000
19595 19596 1 0.13986 296436.400000
19595 19604 1 0.13986 296436.400000
19596 19597 1 0.18850 35430.112000
19596 19598 1 0.13986 296436.400000
19598 19599 1 0.10860 301825.392000
19598 19600 1 0.13986 296436.400000
19600 19601 1 0.10860 301825.392000
19600 19602 1 0.13986 296436.400000
19602 19603 1 0.10860 301825.392000
19602 19604 1 0.13986 296436.400000
19604 19605 1 0.10860 301825.392000
19606 19607 1 0.10860 301825.392000
19607 19608 1 0.13986 296436.400000
19607 19616 1 0.13986 296436.400000
19608 19609 1 0.18850 35430.112000
19608 19610 1 0.13986 296436.400000
19610 19611 1 0.10860 301825.392000
19610 19612 1 0.13986 296436.400000
19612 19613 1 0.10860 301825.392000
19612 19614 1 0.13986 296436.400000
19614 19615 1 0.10860 301825.392000
19614 19616 1 0.13986 296436.400000
19616 19617 1 0.10860 301825.392000
19618 19619 1 0.10860 301825.392000
19619 19620 1 0.13986 296436.400000
19619 19628 1 0.13986 296436.400000
19620 19621 1 0.18850 35430.112000
19620 19622 1 0.13986 296436.400000
19622 19623 1 0.10860 301825.392000
19622 19624 1 0.13986 296436.400000
19624 19625 1 0.10860 301825.392000
19624 19626 1 0.13986 296436.400000
19626 19627 1 0.10860 301825.392000
19626 19628 1 0.13986 296436.400000
19628 19629 1 0.10860 301825.392000
19630 19631 1 0.10860 301825.392000
19631 19632 1 0.13986 296436.400000
19631 19640 1 0.13986 296436.400000
19632 19633 1 0.18850 35430.112000
19632 19634 1 0.13986 296436.400000
19634 19635 1 0.10860 301825.392000
19634 19636 1 0.13986 296436.400000
19636 19637 1 0.10860 301825.392000
19636 19638 1 0.13986 296436.400000
19638 19639 1 0.10860 301825.392000
19638 19640 1 0.13986 296436.400000
19640 19641 1 0.10860 301825.392000
19642 19643 1 0.10860 301825.392000
19643 19644 1 0.13986 296436.400000
19643 19652 1 0.13986 296436.400000
19644 19645 1 0.18850 35430.112000
19644 19646 1 0.13986 296436.400000
19646 19647 1 0.10860 301825.392000
19646 19648 1 0.13986 296436.400000
19648 19649 1 0.10860 301825.392000
19648 19650 1 0.13986 296436.400000
19650 19651 1 0.10860 301825.392000
19650 19652 1 0.13986 296436.400000
19652 19653 1 0.10860 301825.392000
19654 19655 1 0.10860 301825.392000
19655 19656 1 0.13986 296436.400000
19655 19664 1 0.13986 296436.400000
19656 19657 1 0.18850 35430.112000
19656 19658 1 0.13986 296436.400000
19658 19659 1 0.10860 301825.392000
19658 19660 1 0.13986 296436.400000
19660 19661 1 0.10860 301825.392000
19660 19662 1 0.13986 296436.400000
19662 19663 1 0.10860 301825.392000
19662 19664 1 0.13986 296436.400000
19664 19665 1 0.10860 301825.392000
19666 19667 1 0.10860 301825.392000
19667 19668 1 0.13986 296436.400000
19667 19676 1 0.13986 296436.400000
19668 19669 1 0.18850 35430.112000
19668 19670 1 0.13986 296436.400000
19670 19671 1 0.10860 301825.392000
19670 19672 1 0.13986 296436.400000
19672 19673 1 0.10860 301825.392000
19672 19674 1 0.13986 296436.400000
19674 19675 1 0.10860 301825.392000
19674 19676 1 0.13986 296436.400000
19676 19677 1 0.10860 301825.392000
19678 19679 1 0.10860 301825.392000
19679 19680 1 0.13986 296436.400000
19679 19688 1 0.13986 296436.400000
19680 19681 1 0.18850 35430.112000
19680 19682 1 0.13986 296436.400000
19682 19683 1 0.10860 301825.392000
19682 19684 1 0.13986 296436.400000
19684 19685 1 0.10860 301825.392000
19684 19686 1 0.13986 296436.400000
19686 19687 1 0.10860 301825.392000
19686 19688 1 0.13986 296436.400000
19688 19689 1 0.10860 301825.392000
19690 19691 1 0.10860 301825.392000
19691 19692 1 0.13986 296436.400000
19691 19700 1 0.13986 296436.400000
19692 19693 1 0.18850 35430.112000
19692 19694 1 0.13986 296436.400000
19694 19695 1 0.10860 301825.392000
19694 19696 1 0.13986 296436.400000
19696 19697 1 0.10860 301825.392000
19696 19698 1 0.13986 296436.400000
19698 19699 1 0.10860 301825.392000
19698 19700 1 0.13986 296436.400000
19700 19701 1 0.10860 301825.392000
19702 19703 1 0.10860 301825.392000
19703 19704 1 0.13986 296436.400000
19703 19712 1 0.13986 296436.400000
19704 19705 1 0.18850 35430.112000
19704 19706 1 0.13986 296436.400000
19706 19707 1 0.10860 301825.392000
19706 19708 1 0.13986 296436.400000
19708 19709 1 0.10860 301825.392000
19708 19710 1 0.13986 296436.400000
19710 19711 1 0.10860 301825.392000
19710 19712 1 0.13986 296436.400000
19712 19713 1 0.10860 301825.392000
19714 19715 1 0.10860 301825.392000
19715 19716 1 0.13986 296436.400000
19715 19724 1 0.13986 296436.400000
19716 19717 1 0.18850 35430.112000
19716 19718 1 0.13986 296436.400000
19718 19719 1 0.10860 301825.392000
19718 19720 1 0.13986 296436.400000
19720 19721 1 0.10860 301825.392000
19720 19722 1 0.13986 296436.400000
19722 19723 1 0.10860 301825.392000
19722 19724 1 0.13986 296436.400000
19724 19725 1 0.10860 301825.392000
19726 19727 1 0.10860 301825.392000
19727 19728 1 0.13986 296436.400000
19727 19736 1 0.13986 296436.400000
19728 19729 1 0.18850 35430.112000
19728 19730 1 0.13986 296436.400000
19730 19731 1 0.10860 301825.392000
19730 19732 1 0.13986 296436.400000
19732 19733 1 0.10860 301825.392000
19732 19734 1 0.13986 296436.400000
19734 19735 1 0.10860 301825.392000
19734 19736 1 0.13986 296436.400000
19736 19737 1 0.10860 301825.392000
19738 19739 1 0.10860 301825.392000
19739 19740 1 0.13986 296436.400000
19739 19748 1 0.13986 296436.400000
19740 19741 1 0.18850 35430.112000
19740 19742 1 0.13986 296436.400000
19742 19743 1 0.10860 301825.392000
19742 19744 1 0.13986 296436.400000
19744 19745 1 0.10860 301825.392000
19744 19746 1 0.13986 296436.400000
19746 19747 1 0.10860 301825.392000
19746 19748 1 0.13986 296436.400000
19748 19749 1 0.10860 301825.392000
19750 19751 1 0.10860 301825.392000
19751 19752 1 0.13986 296436.400000
19751 19760 1 0.13986 296436.400000
19752 19753 1 0.18850 35430.112000
19752 19754 1 0.13986 296436.400000
19754 19755 1 0.10860 301825.392000
19754 19756 1 0.13986 296436.400000
19756 19757 1 0.10860 301825.392000
19756 19758 1 0.13986 296436.400000
19758 19759 1 0.10860 301825.392000
19758 19760 1 0.13986 296436.400000
19760 19761 1 0.10860 301825.392000
19762 19763 1 0.10860 301825.392000
19763 19764 1 0.13986 296436.400000
19763 19772 1 0.13986 296436.400000
19764 19765 1 0.18850 35430.112000
19764 19766 1 0.13986 296436.400000
19766 19767 1 0.10860 301825.392000
19766 19768 1 0.13986 296436.400000
19768 19769 1 0.10860 301825.392000
19768 19770 1 0.13986 296436.400000
19770 19771 1 0.10860 301825.392000
19770 19772 1 0.13986 296436.400000
19772 19773 1 0.10860 301825.392000
19774 19775 1 0.10860 301825.392000
19775 19776 1 0.13986 296436.400000
19775 19784 1 0.13986 296436.400000
19776 19777 1 0.18850 35430.112000
19776 19778 1 0.13986 296436.400000
19778 19779 1 0.10860 301825.392000
19778 19780 1 0.13986 296436.400000
19780 19781 1 0.10860 301825.392000
19780 19782 1 0.13986 296436.400000
19782 19783 1 0.10860 301825.392000
19782 19784 1 0.13986 296436.400000
19784 19785 1 0.10860 301825.392000
19786 19787 1 0.10860 301825.392000
19787 19788 1 0.13986 296436.400000
19787 19796 1 0.13986 296436.400000
19788 19789 1 0.18850 35430.112000
19788 19790 1 0.13986 296436.400000
19790 19791 1 0.10860 301825.392000
19790 19792 1 0.13986 296436.400000
19792 19793 1 0.10860 301825.392000
19792 19794 1 0.13986 296436.400000
19794 19795 1 0.10860 301825.392000
19794 19796 1 0.13986 296436.400000
19796 19797 1 0.10860 301825.392000
19798 19799 1 0.10860 301825.392000
19799 19800 1 0.13986 296436.400000
19799 19808 1 0.13986 296436.400000
19800 19801 1 0.18850 35430.112000
19800 19802 1 0.13986 296436.400000
19802 19803 1 0.10860 301825.392000
19802 19804 1 0.13986 296436.400000
19804 19805 1 0.10860 301825.392000
19804 19806 1 0.13986 296436.400000
19806 19807 1 0.10860 301825.392000
19806 19808 1 0.13986 296436.400000
19808 19809 1 0.10860 301825.392000
19810 19811 1 0.10860 301825.392000
19811 19812 1 0.13986 296436.400000
19811 19820 1 0.13986 296436.400000
19812 19813 1 0.18850 35430.112000
19812 19814 1 0.13986 296436.400000
19814 19815 1 0.10860 301825.392000
19814 19816 1 0.13986 296436.400000
19816 19817 1 0.10860 301825.392000
19816 19818 1 0.13986 296436.400000
19818 19819 1 0.10860 301825.392000
19818 19820 1 0.13986 296436.400000
19820 19821 1 0.10860 301825.392000
19822 19823 1 0.10860 301825.392000
19823 19824 1 0.13986 296436.400000
19823 19832 1 0.13986 296436.400000
19824 19825 1 0.18850 35430.112000
19824 19826 1 0.13986 296436.400000
19826 19827 1 0.10860 301825.392000
19826 19828 1 0.13986 296436.400000
19828 19829 1 0.10860 301825.392000
19828 19830 1 0.13986 296436.400000
19830 19831 1 0.10860 301825.392000
19830 19832 1 0.13986 296436.400000
19832 19833 1 0.10860 301825.392000
19834 19835 1 0.10860 301825.392000
19835 19836 1 0.13986 296436.400000
19835 19844 1 0.13986 296436.400000
19836 19837 1 0.18850 35430.112000
19836 19838 1 0.13986 296436.400000
19838 19839 1 0.10860 301825.392000
19838 19840 1 0.13986 296436.400000
19840 19841 1 0.10860 301825.392000
19840 19842 1 0.13986 296436.400000
19842 19843 1 0.10860 301825.392000
19842 19844 1 0.13986 296436.400000
19844 19845 1 0.10860 301825.392000
19846 19847 1 0.10860 301825.392000
19847 19848 1 0.13986 296436.400000
19847 19856 1 0.13986 296436.400000
19848 19849 1 0.18850 35430.112000
19848 19850 1 0.13986 296436.400000
19850 19851 1 0.10860 301825.392000
19850 19852 1 0.13986 296436.400000
19852 19853 1 0.10860 301825.392000
19852 19854 1 0.13986 296436.400000
19854 19855 1 0.10860 301825.392000
19854 19856 1 0.13986 296436.400000
19856 19857 1 0.10860 301825.392000
19858 19859 1 0.10860 301825.392000
19859 19860 1 0.13986 296436.400000
19859 19868 1 0.13986 296436.400000
19860 19861 1 0.18850 35430.112000
19860 19862 1 0.13986 296436.400000
19862 19863 1 0.10860 301825.392000
19862 19864 1 0.13986 296436.400000
19864 19865 1 0.10860 301825.392000
19864 19866 1 0.13986 296436.400000
19866 19867 1 0.10860 301825.392000
19866 19868 1 0.13986 296436.400000
19868 19869 1 0.10860 301825.392000
19870 19871 1 0.10860 301825.392000
19871 19872 1 0.13986 296436.400000
19871 19880 1 0.13986 296436.400000
19872 19873 1 0.18850 35430.112000
19872 19874 1 0.13986 296436.400000
19874 19875 1 0.10860 301825.392000
19874 19876 1 0.13986 296436.400000
19876 19877 1 0.10860 301825.392000
19876 19878 1 0.13986 296436.400000
19878 19879 1 0.10860 301825.392000
19878 19880 1 0.13986 296436.400000
19880 19881 1 0.10860 301825.392000
19882 19883 1 0.10860 301825.392000
19883 19884 1 0.13986 296436.400000
19883 19892 1 0.13986 296436.400000
19884 19885 1 0.18850 35430.112000
19884 19886 1 0.13986 296436.400000
19886 19887 1 0.10860 301825.392000
19886 19888 1 0.13986 296436.400000
19888 19889 1 0.10860 301825.392000
19888 19890 1 0.13986 296436.400000
19890 19891 1 0.10860 301825.392000
19890 19892 1 0.13986 296436.400000
19892 19893 1 0.10860 301825.392000
19894 19895 1 0.10860 301825.392000
19895 19896 1 0.13986 296436.400000
19895 19904 1 0.13986 296436.400000
19896 19897 1 0.18850 35430.112000
19896 19898 1 0.13986 296436.400000
19898 19899 1 0.10860 301825.392000
19898 19900 1 0.13986 296436.400000
19900 19901 1 0.10860 301825.392000
19900 19902 1 0.13986 296436.400000
19902 19903 1 0.10860 301825.392000
19902 19904 1 0.13986 296436.400000
19904 19905 1 0.10860 301825.392000
19906 19907 1 0.10860 301825.392000
19907 19908 1 0.13986 296436.400000
19907 19916 1 0.13986 296436.400000
19908 19909 1 0.18850 35430.112000
19908 19910 1 0.13986 296436.400000
19910 19911 1 0.10860 301825.392000
19910 19912 1 0.13986 296436.400000
19912 19913 1 0.10860 301825.392000
19912 19914 1 0.13986 296436.400000
19914 19915 1 0.10860 301825.392000
19914 19916 1 0.13986 296436.400000
19916 19917 1 0.10860 301825.392000
19918 19919 1 0.10860 301825.392000
19919 19920 1 0.13986 296436.400000
19919 19928 1 0.13986 296436.400000
19920 19921 1 0.18850 35430.112000
19920 19922 1 0.13986 296436.400000
19922 19923 1 0.10860 301825.392000
19922 19924 1 0.13986 296436.400000
19924 19925 1 0.10860 301825.392000
19924 19926 1 0.13986 296436.400000
19926 19927 1 0.10860 301825.392000
19926 19928 1 0.13986 296436.400000
19928 19929 1 0.10860 301825.392000
19930 19931 1 0.10860 301825.392000
19931 19932 1 0.13986 296436.400000
19931 19940 1 0.13986 296436.400000
19932 19933 1 0.18850 35430.112000
19932 19934 1 0.13986 296436.400000
19934 19935 1 0.10860 301825.392000
19934 19936 1 0.13986 296436.400000
19936 19937 1 0.10860 301825.392000
19936 19938 1 0.13986 296436.400000
19938 19939 1 0.10860 301825.392000
19938 19940 1 0.13986 296436.400000
19940 19941 1 0.10860 301825.392000
19942 19943 1 0.10860 301825.392000
19943 19944 1 0.13986 296436.400000
19943 19952 1 0.13986 296436.400000
19944 19945 1 0.18850 35430.112000
19944 19946 1 0.13986 296436.400000
19946 19947 1 0.10860 301825.392000
19946 19948 1 0.13986 296436.400000
19948 19949 1 0.10860 301825.392000
19948 19950 1 0.13986 296436.400000
19950 19951 1 0.10860 301825.392000
19950 19952 1 0.13986 296436.400000
19952 19953 1 0.10860 301825.392000
19954 19955 1 0.10860 301825.392000
19955 19956 1 0.13986 296436.400000
19955 19964 1 0.13986 296436.400000
19956 19957 1 0.18850 35430.112000
19956 19958 1 0.13986 296436.400000
19958 19959 1 0.10860 301825.392000
19958 19960 1 0.13986 296436.400000
19960 19961 1 0.10860 301825.392000
19960 19962 1 0.13986 296436.400000
19962 19963 1 0.10860 301825.392000
19962 19964 1 0.13986 296436.400000
19964 19965 1 0.10860 301825.392000
19966 19967 1 0.10860 301825.392000
19967 19968 1 0.13986 296436.400000
19967 19976 1 0.13986 296436.400000
19968 19969 1 0.18850 35430.112000
19968 19970 1 0.13986 296436.400000
19970 19971 1 0.10860 301825.392000
19970 19972 1 0.13986 296436.400000
19972 19973 1 0.10860 301825.392000
19972 19974 1 0.13986 296436.400000
19974 19975 1 0.10860 301825.392000
19974 19976 1 0.13986 296436.400000
19976 19977 1 0.10860 301825.392000
19978 19979 1 0.10860 301825.392000
19979 19980 1 0.13986 296436.400000
19979 19988 1 0.13986 296436.400000
19980 19981 1 0.18850 35430.112000
19980 19982 1 0.13986 296436.400000
19982 19983 1 0.10860 301825.392000
19982 19984 1 0.13986 296436.400000
19984 19985 1 0.10860 301825.392000
19984 19986 1 0.13986 296436.400000
19986 19987 1 0.10860 301825.392000
19986 19988 1 0.13986 296436.400000
19988 19989 1 0.10860 301825.392000
19990 19991 1 0.10860 301825.392000
19991 19992 1 0.13986 296436.400000
19991 20000 1 0.13986 296436.400000
19992 19993 1 0.18850 35430.112000
19992 19994 1 0.13986 296436.400000
19994 19995 1 0.10860 301825.392000
19994 19996 1 0.13986 296436.400000
19996 19997 1 0.10860 301825.392000
19996 19998 1 0.13986 296436.400000
19998 19999 1 0.10860 301825.392000
19998 20000 1 0.13986 296436.400000
20000 20001 1 0.10860 301825.392000
20002 20003 1 0.10860 301825.392000
20003 20004 1 0.13986 296436.400000
20003 20012 1 0.13986 296436.400000
20004 20005 1 0.18850 35430.112000
20004 20006 1 0.13986 296436.400000
20006 20007 1 0.10860 301825.392000
20006 20008 1 0.13986 296436.400000
20008 20009 1 0.10860 301825.392000
20008 20010 1 0.13986 296436.400000
20010 20011 1 0.10860 301825.392000
20010 20012 1 0.13986 296436.400000
20012 20013 1 0.10860 301825.392000
20014 20015 1 0.10860 301825.392000
20015 20016 1 0.13986 296436.400000
20015 20024 1 0.13986 296436.400000
20016 20017 1 0.18850 35430.112000
20016 20018 1 0.13986 296436.400000
20018 20019 1 0.10860 301825.392000
20018 20020 1 0.13986 296436.400000
20020 20021 1 0.10860 301825.392000
20020 20022 1 0.13986 296436.400000
20022 20023 1 0.10860 301825.392000
20022 20024 1 0.13986 296436.400000
20024 20025 1 0.10860 301825.392000
20026 20027 1 0.10860 301825.392000
20027 20028 1 0.13986 296436.400000
20027 20036 1 0.13986 296436.400000
20028 20029 1 0.18850 35430.112000
20028 20030 1 0.13986 296436.400000
20030 20031 1 0.10860 301825.392000
20030 20032 1 0.13986 296436.400000
20032 20033 1 0.10860 301825.392000
20032 20034 1 0.13986 296436.400000
20034 20035 1 0.10860 301825.392000
20034 20036 1 0.13986 296436.400000
20036 20037 1 0.10860 301825.392000
20038 20039 1 0.10860 301825.392000
20039 20040 1 0.13986 296436.400000
20039 20048 1 0.13986 296436.400000
20040 20041 1 0.18850 35430.112000
20040 20042 1 0.13986 296436.400000
20042 20043 1 0.10860 301825.392000
20042 20044 1 0.13986 296436.400000
20044 20045 1 0.10860 301825.392000
20044 20046 1 0.13986 296436.400000
20046 20047 1 0.10860 301825.392000
20046 20048 1 0.13986 296436.400000
20048 20049 1 0.10860 301825.392000
20050 20051 1 0.10860 301825.392000
20051 20052 1 0.13986 296436.400000
20051 20060 1 0.13986 296436.400000
20052 20053 1 0.18850 35430.112000
20052 20054 1 0.13986 296436.400000
20054 20055 1 0.10860 301825.392000
20054 20056 1 0.13986 296436.400000
20056 20057 1 0.10860 301825.392000
20056 20058 1 0.13986 296436.400000
20058 20059 1 0.10860 301825.392000
20058 20060 1 0.13986 296436.400000
20060 20061 1 0.10860 301825.392000
20062 20063 1 0.10860 301825.392000
20063 20064 1 0.13986 296436.400000
20063 20072 1 0.13986 296436.400000
20064 20065 1 0.18850 35430.112000
20064 20066 1 0.13986 296436.400000
20066 20067 1 0.10860 301825.392000
20066 20068 1 0.13986 296436.400000
20068 20069 1 0.10860 301825.392000
20068 20070 1 0.13986 296436.400000
20070 20071 1 0.10860 301825.392000
20070 20072 1 0.13986 296436.400000
20072 20073 1 0.10860 301825.392000
20074 20075 1 0.10860 301825.392000
20075 20076 1 0.13986 296436.400000
20075 20084 1 0.13986 296436.400000
20076 20077 1 0.18850 35430.112000
20076 20078 1 0.13986 296436.400000
20078 20079 1 0.10860 301825.392000
20078 20080 1 0.13986 296436.400000
20080 20081 1 0.10860 301825.392000
20080 20082 1 0.13986 296436.400000
20082 20083 1 0.10860 301825.392000
20082 20084 1 0.13986 296436.400000
20084 20085 1 0.10860 301825.392000
20086 20087 1 0.10860 301825.392000
20087 20088 1 0.13986 296436.400000
20087 20096 1 0.13986 296436.400000
20088 20089 1 0.18850 35430.112000
20088 20090 1 0.13986 296436.400000
20090 20091 1 0.10860 301825.392000
20090 20092 1 0.13986 296436.400000
20092 20093 1 0.10860 301825.392000
20092 20094 1 0.13986 296436.400000
20094 20095 1 0.10860 301825.392000
20094 20096 1 0.13986 296436.400000
20096 20097 1 0.10860 301825.392000
20098 20099 1 0.10860 301825.392000
20099 20100 1 0.13986 296436.400000
20099 20108 1 0.13986 296436.400000
20100 20101 1 0.18850 35430.112000
20100 20102 1 0.13986 296436.400000
20102 20103 1 0.10860 301825.392000
20102 20104 1 0.13986 296436.400000
20104 20105 1 0.10860 301825.392000
20104 20106 1 0.13986 296436.400000
20106 20107 1 0.10860 301825.392000
20106 20108 1 0.13986 296436.400000
20108 20109 1 0.10860 301825.392000
20110 20111 1 0.10860 301825.392000
20111 20112 1 0.13986 296436.400000
20111 20120 1 0.13986 296436.400000
20112 20113 1 0.18850 35430.112000
20112 20114 1 0.13986 296436.400000
20114 20115 1 0.10860 301825.392000
20114 20116 1 0.13986 296436.400000
20116 20117 1 0.10860 301825.392000
20116 20118 1 0.13986 296436.400000
20118 20119 1 0.10860 301825.392000
20118 20120 1 0.13986 296436.400000
20120 20121 1 0.10860 301825.392000
20122 20123 1 0.10860 301825.392000
20123 20124 1 0.13986 296436.400000
20123 20132 1 0.13986 296436.400000
20124 20125 1 0.18850 35430.112000
20124 20126 1 0.13986 296436.400000
20126 20127 1 0.10860 301825.392000
20126 20128 1 0.13986 296436.400000
20128 20129 1 0.10860 301825.392000
20128 20130 1 0.13986 296436.400000
20130 20131 1 0.10860 301825.392000
20130 20132 1 0.13986 296436.400000
20132 20133 1 0.10860 301825.392000
20134 20135 1 0.10860 301825.392000
20135 20136 1 0.13986 296436.400000
20135 20144 1 0.13986 296436.400000
20136 20137 1 0.18850 35430.112000
20136 20138 1 0.13986 296436.400000
20138 20139 1 0.10860 301825.392000
20138 20140 1 0.13986 296436.400000
20140 20141 1 0.10860 301825.392000
20140 20142 1 0.13986 296436.400000
20142 20143 1 0.10860 301825.392000
20142 20144 1 0.13986 296436.400000
20144 20145 1 0.10860 301825.392000
20146 20147 1 0.10860 301825.392000
20147 20148 1 0.13986 296436.400000
20147 20156 1 0.13986 296436.400000
20148 20149 1 0.18850 35430.112000
20148 20150 1 0.13986 296436.400000
20150 20151 1 0.10860 301825.392000
20150 20152 1 0.13986 296436.400000
20152 20153 1 0.10860 301825.392000
20152 20154 1 0.13986 296436.400000
20154 20155 1 0.10860 301825.392000
20154 20156 1 0.13986 296436.400000
20156 20157 1 0.10860 301825.392000
20158 20159 1 0.10860 301825.392000
20159 20160 1 0.13986 296436.400000
20159 20168 1 0.13986 296436.400000
20160 20161 1 0.18850 35430.112000
20160 20162 1 0.13986 296436.400000
20162 20163 1 0.10860 301825.392000
20162 20164 1 0.13986 296436.400000
20164 20165 1 0.10860 301825.392000
20164 20166 1 0.13986 296436.400000
20166 20167 1 0.10860 301825.392000
20166 20168 1 0.13986 296436.400000
20168 20169 1 0.10860 301825.392000
20170 20171 1 0.10860 301825.392000
20171 20172 1 0.13986 296436.400000
20171 20180 1 0.13986 296436.400000
20172 20173 1 0.18850 35430.112000
20172 20174 1 0.13986 296436.400000
20174 20175 1 0.10860 301825.392000
20174 20176 1 0.13986 296436.400000
20176 20177 1 0.10860 301825.392000
20176 20178 1 0.13986 296436.400000
20178 20179 1 0.10860 301825.392000
20178 20180 1 0.13986 296436.400000
20180 20181 1 0.10860 301825.392000
20182 20183 1 0.10860 301825.392000
20183 20184 1 0.13986 296436.400000
20183 20192 1 0.13986 296436.400000
20184 20185 1 0.18850 35430.112000
20184 20186 1 0.13986 296436.400000
20186 20187 1 0.10860 301825.392000
20186 20188 1 0.13986 296436.400000
20188 20189 1 0.10860 301825.392000
20188 20190 1 0.13986 296436.400000
20190 20191 1 0.10860 301825.392000
20190 20192 1 0.13986 296436.400000
20192 20193 1 0.10860 301825.392000
20194 20195 1 0.10860 301825.392000
20195 20196 1 0.13986 296436.400000
20195 20204 1 0.13986 296436.400000
20196 20197 1 0.18850 35430.112000
20196 20198 1 0.13986 296436.400000
20198 20199 1 0.10860 301825.392000
20198 20200 1 0.13986 296436.400000
20200 20201 1 0.10860 301825.392000
20200 20202 1 0.13986 296436.400000
20202 20203 1 0.10860 301825.392000
20202 20204 1 0.13986 296436.400000
20204 20205 1 0.10860 301825.392000
20206 20207 1 0.10860 301825.392000
20207 20208 1 0.13986 296436.400000
20207 20216 1 0.13986 296436.400000
20208 20209 1 0.18850 35430.112000
20208 20210 1 0.13986 296436.400000
20210 20211 1 0.10860 301825.392000
20210 20212 1 0.13986 296436.400000
20212 20213 1 0.10860 301825.392000
20212 20214 1 0.13986 296436.400000
20214 20215 1 0.10860 301825.392000
20214 20216 1 0.13986 296436.400000
20216 20217 1 0.10860 301825.392000
20218 20219 1 0.10860 301825.392000
20219 20220 1 0.13986 296436.400000
20219 20228 1 0.13986 296436.400000
20220 20221 1 0.18850 35430.112000
20220 20222 1 0.13986 296436.400000
20222 20223 1 0.10860 301825.392000
20222 20224 1 0.13986 296436.400000
20224 20225 1 0.10860 301825.392000
20224 20226 1 0.13986 296436.400000
20226 20227 1 0.10860 301825.392000
20226 20228 1 0.13986 296436.400000
20228 20229 1 0.10860 301825.392000
20230 20231 1 0.10860 301825.392000
20231 20232 1 0.13986 296436.400000
20231 20240 1 0.13986 296436.400000
20232 20233 1 0.18850 35430.112000
20232 20234 1 0.13986 296436.400000
20234 20235 1 0.10860 301825.392000
20234 20236 1 0.13986 296436.400000
20236 20237 1 0.10860 301825.392000
20236 20238 1 0.13986 296436.400000
20238 20239 1 0.10860 301825.392000
20238 20240 1 0.13986 296436.400000
20240 20241 1 0.10860 301825.392000
20242 20243 1 0.10860 301825.392000
20243 20244 1 0.13986 296436.400000
20243 20252 1 0.13986 296436.400000
20244 20245 1 0.18850 35430.112000
20244 20246 1 0.13986 296436.400000
20246 20247 1 0.10860 301825.392000
20246 20248 1 0.13986 296436.400000
20248 20249 1 0.10860 301825.392000
20248 20250 1 0.13986 296436.400000
20250 20251 1 0.10860 301825.392000
20250 20252 1 0.13986 296436.400000
20252 20253 1 0.10860 301825.392000
20254 20255 1 0.10860 301825.392000
20255 20256 1 0.13986 296436.400000
20255 20264 1 0.13986 296436.400000
20256 20257 1 0.18850 35430.112000
20256 20258 1 0.13986 296436.400000
20258 20259 1 0.10860 301825.392000
20258 20260 1 0.13986 296436.400000
20260 20261 1 0.10860 301825.392000
20260 20262 1 0.13986 296436.400000
20262 20263 1 0.10860 301825.392000
20262 20264 1 0.13986 296436.400000
20264 20265 1 0.10860 301825.392000
20266 20267 1 0.10860 301825.392000
20267 20268 1 0.13986 296436.400000
20267 20276 1 0.13986 296436.400000
20268 20269 1 0.18850 35430.112000
20268 20270 1 0.13986 296436.400000
20270 20271 1 0.10860 301825.392000
20270 20272 1 0.13986 296436.400000
20272 20273 1 0.10860 301825.392000
20272 20274 1 0.13986 296436.400000
20274 20275 1 0.10860 301825.392000
20274 20276 1 0.13986 296436.400000
20276 20277 1 0.10860 301825.392000
20278 20279 1 0.10860 301825.392000
20279 20280 1 0.13986 296436.400000
20279 20288 1 0.13986 296436.400000
20280 20281 1 0.18850 35430.112000
20280 20282 1 0.13986 296436.400000
20282 20283 1 0.10860 301825.392000
20282 20284 1 0.13986 296436.400000
20284 20285 1 0.10860 301825.392000
20284 20286 1 0.13986 296436.400000
20286 20287 1 0.10860 301825.392000
20286 20288 1 0.13986 296436.400000
20288 20289 1 0.10860 301825.392000
20290 20291 1 0.10860 301825.392000
20291 20292 1 0.13986 296436.400000
20291 20300 1 0.13986 296436.400000
20292 20293 1 0.18850 35430.112000
20292 20294 1 0.13986 296436.400000
20294 20295 1 0.10860 301825.392000
20294 20296 1 0.13986 296436.400000
20296 20297 1 0.10860 301825.392000
20296 20298 1 0.13986 296436.400000
20298 20299 1 0.10860 301825.392000
20298 20300 1 0.13986 296436.400000
20300 20301 1 0.10860 301825.392000
20302 20303 1 0.10860 301825.392000
20303 20304 1 0.13986 296436.400000
20303 20312 1 0.13986 296436.400000
20304 20305 1 0.18850 35430.112000
20304 20306 1 0.13986 296436.400000
20306 20307 1 0.10860 301825.392000
20306 20308 1 0.13986 296436.400000
20308 20309 1 0.10860 301825.392000
20308 20310 1 0.13986 296436.400000
20310 20311 1 0.10860 301825.392000
20310 20312 1 0.13986 296436.400000
20312 20313 1 0.10860 301825.392000
20314 20315 1 0.10860 301825.392000
20315 20316 1 0.13986 296436.400000
20315 20324 1 0.13986 296436.400000
20316 20317 1 0.18850 35430.112000
20316 20318 1 0.13986 296436.400000
20318 20319 1 0.10860 301825.392000
20318 20320 1 0.13986 296436.400000
20320 20321 1 0.10860 301825.392000
20320 20322 1 0.13986 296436.400000
20322 20323 1 0.10860 301825.392000
20322 20324 1 0.13986 296436.400000
20324 20325 1 0.10860 301825.392000
20326 20327 1 0.10860 301825.392000
20327 20328 1 0.13986 296436.400000
20327 20336 1 0.13986 296436.400000
20328 20329 1 0.18850 35430.112000
20328 20330 1 0.13986 296436.400000
20330 20331 1 0.10860 301825.392000
20330 20332 1 0.13986 296436.400000
20332 20333 1 0.10860 301825.392000
20332 20334 1 0.13986 296436.400000
20334 20335 1 0.10860 301825.392000
20334 20336 1 0.13986 296436.400000
20336 20337 1 0.10860 301825.392000
20338 20339 1 0.10860 301825.392000
20339 20340 1 0.13986 296436.400000
20339 20348 1 0.13986 296436.400000
20340 20341 1 0.18850 35430.112000
20340 20342 1 0.13986 296436.400000
20342 20343 1 0.10860 301825.392000
20342 20344 1 0.13986 296436.400000
20344 20345 1 0.10860 301825.392000
20344 20346 1 0.13986 296436.400000
20346 20347 1 0.10860 301825.392000
20346 20348 1 0.13986 296436.400000
20348 20349 1 0.10860 301825.392000
20350 20351 1 0.10860 301825.392000
20351 20352 1 0.13986 296436.400000
20351 20360 1 0.13986 296436.400000
20352 20353 1 0.18850 35430.112000
20352 20354 1 0.13986 296436.400000
20354 20355 1 0.10860 301825.392000
20354 20356 1 0.13986 296436.400000
20356 20357 1 0.10860 301825.392000
20356 20358 1 0.13986 296436.400000
20358 20359 1 0.10860 301825.392000
20358 20360 1 0.13986 296436.400000
20360 20361 1 0.10860 301825.392000
20362 20363 1 0.10860 301825.392000
20363 20364 1 0.13986 296436.400000
20363 20372 1 0.13986 296436.400000
20364 20365 1 0.18850 35430.112000
20364 20366 1 0.13986 296436.400000
20366 20367 1 0.10860 301825.392000
20366 20368 1 0.13986 296436.400000
20368 20369 1 0.10860 301825.392000
20368 20370 1 0.13986 296436.400000
20370 20371 1 0.10860 301825.392000
20370 20372 1 0.13986 296436.400000
20372 20373 1 0.10860 301825.392000
20374 20375 1 0.10860 301825.392000
20375 20376 1 0.13986 296436.400000
20375 20384 1 0.13986 296436.400000
20376 20377 1 0.18850 35430.112000
20376 20378 1 0.13986 296436.400000
20378 20379 1 0.10860 301825.392000
20378 20380 1 0.13986 296436.400000
20380 20381 1 0.10860 301825.392000
20380 20382 1 0.13986 296436.400000
20382 20383 1 0.10860 301825.392000
20382 20384 1 0.13986 296436.400000
20384 20385 1 0.10860 301825.392000
20386 20387 1 0.10860 301825.392000
20387 20388 1 0.13986 296436.400000
20387 20396 1 0.13986 296436.400000
20388 20389 1 0.18850 35430.112000
20388 20390 1 0.13986 296436.400000
20390 20391 1 0.10860 301825.392000
20390 20392 1 0.13986 296436.400000
20392 20393 1 0.10860 301825.392000
20392 20394 1 0.13986 296436.400000
20394 20395 1 0.10860 301825.392000
20394 20396 1 0.13986 296436.400000
20396 20397 1 0.10860 301825.392000
20398 20399 1 0.10860 301825.392000
20399 20400 1 0.13986 296436.400000
20399 20408 1 0.13986 296436.400000
20400 20401 1 0.18850 35430.112000
20400 20402 1 0.13986 296436.400000
20402 20403 1 0.10860 301825.392000
20402 20404 1 0.13986 296436.400000
20404 20405 1 0.10860 301825.392000
20404 20406 1 0.13986 296436.400000
20406 20407 1 0.10860 301825.392000
20406 20408 1 0.13986 296436.400000
20408 20409 1 0.10860 301825.392000
20410 20411 1 0.10860 301825.392000
20411 20412 1 0.13986 296436.400000
20411 20420 1 0.13986 296436.400000
20412 20413 1 0.18850 35430.112000
20412 20414 1 0.13986 296436.400000
20414 20415 1 0.10860 301825.392000
20414 20416 1 0.13986 296436.400000
20416 20417 1 0.10860 301825.392000
20416 20418 1 0.13986 296436.400000
20418 20419 1 0.10860 301825.392000
20418 20420 1 0.13986 296436.400000
20420 20421 1 0.10860 301825.392000
20422 20423 1 0.10860 301825.392000
20423 20424 1 0.13986 296436.400000
20423 20432 1 0.13986 296436.400000
20424 20425 1 0.18850 35430.112000
20424 20426 1 0.13986 296436.400000
20426 20427 1 0.10860 301825.392000
20426 20428 1 0.13986 296436.400000
20428 20429 1 0.10860 301825.392000
20428 20430 1 0.13986 296436.400000
20430 20431 1 0.10860 301825.392000
20430 20432 1 0.13986 296436.400000
20432 20433 1 0.10860 301825.392000
20434 20435 1 0.10860 301825.392000
20435 20436 1 0.13986 296436.400000
20435 20444 1 0.13986 296436.400000
20436 20437 1 0.18850 35430.112000
20436 20438 1 0.13986 296436.400000
20438 20439 1 0.10860 301825.392000
20438 20440 1 0.13986 296436.400000
20440 20441 1 0.10860 301825.392000
20440 20442 1 0.13986 296436.400000
20442 20443 1 0.10860 301825.392000
20442 20444 1 0.13986 296436.400000
20444 20445 1 0.10860 301825.392000
20446 20447 1 0.10860 301825.392000
20447 20448 1 0.13986 296436.400000
20447 20456 1 0.13986 296436.400000
20448 20449 1 0.18850 35430.112000
20448 20450 1 0.13986 296436.400000
20450 20451 1 0.10860 301825.392000
20450 20452 1 0.13986 296436.400000
20452 20453 1 0.10860 301825.392000
20452 20454 1 0.13986 296436.400000
20454 20455 1 0.10860 301825.392000
20454 20456 1 0.13986 296436.400000
20456 20457 1 0.10860 301825.392000
20458 20459 1 0.10860 301825.392000
20459 20460 1 0.13986 296436.400000
20459 20468 1 0.13986 296436.400000
20460 20461 1 0.18850 35430.112000
20460 20462 1 0.13986 296436.400000
20462 20463 1 0.10860 301825.392000
20462 20464 1 0.13986 296436.400000
20464 20465 1 0.10860 301825.392000
20464 20466 1 0.13986 296436.400000
20466 20467 1 0.10860 301825.392000
20466 20468 1 0.13986 296436.400000
20468 20469 1 0.10860 301825.392000
20470 20471 1 0.10860 301825.392000
20471 20472 1 0.13986 296436.400000
20471 20480 1 0.13986 296436.400000
20472 20473 1 0.18850 35430.112000
20472 20474 1 0.13986 296436.400000
20474 20475 1 0.10860 301825.392000
20474 20476 1 0.13986 296436.400000
20476 20477 1 0.10860 301825.392000
20476 20478 1 0.13986 296436.400000
20478 20479 1 0.10860 301825.392000
20478 20480 1 0.13986 296436.400000
20480 20481 1 0.10860 301825.392000
20482 20483 1 0.10860 301825.392000
20483 20484 1 0.13986 296436.400000
20483 20492 1 0.13986 296436.400000
20484 20485 1 0.18850 35430.112000
20484 20486 1 0.13986 296436.400000
20486 20487 1 0.10860 301825.392000
20486 20488 1 0.13986 296436.400000
20488 20489 1 0.10860 301825.392000
20488 20490 1 0.13986 296436.400000
20490 20491 1 0.10860 301825.392000
20490 20492 1 0.13986 296436.400000
20492 20493 1 0.10860 301825.392000
20494 20495 1 0.10860 301825.392000
20495 20496 1 0.13986 296436.400000
20495 20504 1 0.13986 296436.400000
20496 20497 1 0.18850 35430.112000
20496 20498 1 0.13986 296436.400000
20498 20499 1 0.10860 301825.392000
20498 20500 1 0.13986 296436.400000
20500 20501 1 0.10860 301825.392000
20500 20502 1 0.13986 296436.400000
20502 20503 1 0.10860 301825.392000
20502 20504 1 0.13986 296436.400000
20504 20505 1 0.10860 301825.392000
20506 20507 1 0.10860 301825.392000
20507 20508 1 0.13986 296436.400000
20507 20516 1 0.13986 296436.400000
20508 20509 1 0.18850 35430.112000
20508 20510 1 0.13986 296436.400000
20510 20511 1 0.10860 301825.392000
20510 20512 1 0.13986 296436.400000
20512 20513 1 0.10860 301825.392000
20512 20514 1 0.13986 296436.400000
20514 20515 1 0.10860 301825.392000
20514 20516 1 0.13986 296436.400000
20516 20517 1 0.10860 301825.392000
20518 20519 1 0.10860 301825.392000
20519 20520 1 0.13986 296436.400000
20519 20528 1 0.13986 296436.400000
20520 20521 1 0.18850 35430.112000
20520 20522 1 0.13986 296436.400000
20522 20523 1 0.10860 301825.392000
20522 20524 1 0.13986 296436.400000
20524 20525 1 0.10860 301825.392000
20524 20526 1 0.13986 296436.400000
20526 20527 1 0.10860 301825.392000
20526 20528 1 0.13986 296436.400000
20528 20529 1 0.10860 301825.392000
20530 20531 1 0.10860 301825.392000
20531 20532 1 0.13986 296436.400000
20531 20540 1 0.13986 296436.400000
20532 20533 1 0.18850 35430.112000
20532 20534 1 0.13986 296436.400000
20534 20535 1 0.10860 301825.392000
20534 20536 1 0.13986 296436.400000
20536 20537 1 0.10860 301825.392000
20536 20538 1 0.13986 296436.400000
20538 20539 1 0.10860 301825.392000
20538 20540 1 0.13986 296436.400000
20540 20541 1 0.10860 301825.392000
20542 20543 1 0.10860 301825.392000
20543 20544 1 0.13986 296436.400000
20543 20552 1 0.13986 296436.400000
20544 20545 1 0.18850 35430.112000
20544 20546 1 0.13986 296436.400000
20546 20547 1 0.10860 301825.392000
20546 20548 1 0.13986 296436.400000
20548 20549 1 0.10860 301825.392000
20548 20550 1 0.13986 296436.400000
20550 20551 1 0.10860 301825.392000
20550 20552 1 0.13986 296436.400000
20552 20553 1 0.10860 301825.392000
20554 20555 1 0.10860 301825.392000
20555 20556 1 0.13986 296436.400000
20555 20564 1 0.13986 296436.400000
20556 20557 1 0.18850 35430.112000
20556 20558 1 0.13986 296436.400000
20558 20559 1 0.10860 301825.392000
20558 20560 1 0.13986 296436.400000
20560 20561 1 0.10860 301825.392000
20560 20562 1 0.13986 296436.400000
20562 20563 1 0.10860 301825.392000
20562 20564 1 0.13986 296436.400000
20564 20565 1 0.10860 301825.392000
20566 20567 1 0.10860 301825.392000
20567 20568 1 0.13986 296436.400000
20567 20576 1 0.13986 296436.400000
20568 20569 1 0.18850 35430.112000
20568 20570 1 0.13986 296436.400000
20570 20571 1 0.10860 301825.392000
20570 20572 1 0.13986 296436.400000
20572 20573 1 0.10860 301825.392000
20572 20574 1 0.13986 296436.400000
20574 20575 1 0.10860 301825.392000
20574 20576 1 0.13986 296436.400000
20576 20577 1 0.10860 301825.392000
20578 20579 1 0.10860 301825.392000
20579 20580 1 0.13986 296436.400000
20579 20588 1 0.13986 296436.400000
20580 20581 1 0.18850 35430.112000
20580 20582 1 0.13986 296436.400000
20582 20583 1 0.10860 301825.392000
20582 20584 1 0.13986 296436.400000
20584 20585 1 0.10860 301825.392000
20584 20586 1 0.13986 296436.400000
20586 20587 1 0.10860 301825.392000
20586 20588 1 0.13986 296436.400000
20588 20589 1 0.10860 301825.392000
20590 20591 1 0.10860 301825.392000
20591 20592 1 0.13986 296436.400000
20591 20600 1 0.13986 296436.400000
20592 20593 1 0.18850 35430.112000
20592 20594 1 0.13986 296436.400000
20594 20595 1 0.10860 301825.392000
20594 20596 1 0.13986 296436.400000
20596 20597 1 0.10860 301825.392000
20596 20598 1 0.13986 296436.400000
20598 20599 1 0.10860 301825.392000
20598 20600 1 0.13986 296436.400000
20600 20601 1 0.10860 301825.392000
20602 20603 1 0.10860 301825.392000
20603 20604 1 0.13986 296436.400000
20603 20612 1 0.13986 296436.400000
20604 20605 1 0.18850 35430.112000
20604 20606 1 0.13986 296436.400000
20606 20607 1 0.10860 301825.392000
20606 20608 1 0.13986 296436.400000
20608 20609 1 0.10860 301825.392000
20608 20610 1 0.13986 296436.400000
20610 20611 1 0.10860 301825.392000
20610 20612 1 0.13986 296436.400000
20612 20613 1 0.10860 301825.392000
20614 20615 1 0.10860 301825.392000
20615 20616 1 0.13986 296436.400000
20615 20624 1 0.13986 296436.400000
20616 20617 1 0.18850 35430.112000
20616 20618 1 0.13986 296436.400000
20618 20619 1 0.10860 301825.392000
20618 20620 1 0.13986 296436.400000
20620 20621 1 0.10860 301825.392000
20620 20622 1 0.13986 296436.400000
20622 20623 1 0.10860 301825.392000
20622 20624 1 0.13986 296436.400000
20624 20625 1 0.10860 301825.392000
20626 20627 1 0.10860 301825.392000
20627 20628 1 0.13986 296436.400000
20627 20636 1 0.13986 296436.400000
20628 20629 1 0.18850 35430.112000
20628 20630 1 0.13986 296436.400000
20630 20631 1 0.10860 301825.392000
20630 20632 1 0.13986 296436.400000
20632 20633 1 0.10860 301825.392000
20632 20634 1 0.13986 296436.400000
20634 20635 1 0.10860 301825.392000
20634 20636 1 0.13986 296436.400000
20636 20637 1 0.10860 301825.392000
20638 20639 1 0.10860 301825.392000
20639 20640 1 0.13986 296436.400000
20639 20648 1 0.13986 296436.400000
20640 20641 1 0.18850 35430.112000
20640 20642 1 0.13986 296436.400000
20642 20643 1 0.10860 301825.392000
20642 20644 1 0.13986 296436.400000
20644 20645 1 0.10860 301825.392000
20644 20646 1 0.13986 296436.400000
20646 20647 1 0.10860 301825.392000
20646 20648 1 0.13986 296436.400000
20648 20649 1 0.10860 301825.392000
20650 20651 1 0.10860 301825.392000
20651 20652 1 0.13986 296436.400000
20651 20660 1 0.13986 296436.400000
20652 20653 1 0.18850 35430.112000
20652 20654 1 0.13986 296436.400000
20654 20655 1 0.10860 301825.392000
20654 20656 1 0.13986 296436.400000
20656 20657 1 0.10860 301825.392000
20656 20658 1 0.13986 296436.400000
20658 20659 1 0.10860 301825.392000
20658 20660 1 0.13986 296436.400000
20660 20661 1 0.10860 301825.392000
20662 20663 1 0.10860 301825.392000
20663 20664 1 0.13986 296436.400000
20663 20672 1 0.13986 296436.400000
20664 20665 1 0.18850 35430.112000
20664 20666 1 0.13986 296436.400000
20666 20667 1 0.10860 301825.392000
20666 20668 1 0.13986 296436.400000
20668 20669 1 0.10860 301825.392000
20668 20670 1 0.13986 296436.400000
20670 20671 1 0.10860 301825.392000
20670 20672 1 0.13986 296436.400000
20672 20673 1 0.10860 301825.392000
20674 20675 1 0.10860 301825.392000
20675 20676 1 0.13986 296436.400000
20675 20684 1 0.13986 296436.400000
20676 20677 1 0.18850 35430.112000
20676 20678 1 0.13986 296436.400000
20678 20679 1 0.10860 301825.392000
20678 20680 1 0.13986 296436.400000
20680 20681 1 0.10860 301825.392000
20680 20682 1 0.13986 296436.400000
20682 20683 1 0.10860 301825.392000
20682 20684 1 0.13986 296436.400000
20684 20685 1 0.10860 301825.392000
20686 20687 1 0.10860 301825.392000
20687 20688 1 0.13986 296436.400000
20687 20696 1 0.13986 296436.400000
20688 20689 1 0.18850 35430.112000
20688 20690 1 0.13986 296436.400000
20690 20691 1 0.10860 301825.392000
20690 20692 1 0.13986 296436.400000
20692 20693 1 0.10860 301825.392000
20692 20694 1 0.13986 296436.400000
20694 20695 1 0.10860 301825.392000
20694 20696 1 0.13986 296436.400000
20696 20697 1 0.10860 301825.392000
20698 20699 1 0.10860 301825.392000
20699 20700 1 0.13986 296436.400000
20699 20708 1 0.13986 296436.400000
20700 20701 1 0.18850 35430.112000
20700 20702 1 0.13986 296436.400000
20702 20703 1 0.10860 301825.392000
20702 20704 1 0.13986 296436.400000
20704 20705 1 0.10860 301825.392000
20704 20706 1 0.13986 296436.400000
20706 20707 1 0.10860 301825.392000
20706 20708 1 0.13986 296436.400000
20708 20709 1 0.10860 301825.392000
20710 20711 1 0.10860 301825.392000
20711 20712 1 0.13986 296436.400000
20711 20720 1 0.13986 296436.400000
20712 20713 1 0.18850 35430.112000
20712 20714 1 0.13986 296436.400000
20714 20715 1 0.10860 301825.392000
20714 20716 1 0.13986 296436.400000
20716 20717 1 0.10860 301825.392000
20716 20718 1 0.13986 296436.400000
20718 20719 1 0.10860 301825.392000
20718 20720 1 0.13986 296436.400000
20720 20721 1 0.10860 301825.392000
20722 20723 1 0.10860 301825.392000
20723 20724 1 0.13986 296436.400000
20723 20732 1 0.13986 296436.400000
20724 20725 1 0.18850 35430.112000
20724 20726 1 0.13986 296436.400000
20726 20727 1 0.10860 301825.392000
20726 20728 1 0.13986 296436.400000
20728 20729 1 0.10860 301825.392000
20728 20730 1 0.13986 296436.400000
20730 20731 1 0.10860 301825.392000
20730 20732 1 0.13986 296436.400000
20732 20733 1 0.10860 301825.392000
20734 20735 1 0.10860 301825.392000
20735 20736 1 0.13986 296436.400000
20735 20744 1 0.13986 296436.400000
20736 20737 1 0.18850 35430.112000
20736 20738 1 0.13986 296436.400000
20738 20739 1 0.10860 301825.392000
20738 20740 1 0.13986 296436.400000
20740 20741 1 0.10860 301825.392000
20740 20742 1 0.13986 296436.400000
20742 20743 1 0.10860 301825.392000
20742 20744 1 0.13986 296436.400000
20744 20745 1 0.10860 301825.392000
20746 20747 1 0.10860 301825.392000
20747 20748 1 0.13986 296436.400000
20747 20756 1 0.13986 296436.400000
20748 20749 1 0.18850 35430.112000
20748 20750 1 0.13986 296436.400000
20750 20751 1 0.10860 301825.392000
20750 20752 1 0.13986 296436.400000
20752 20753 1 0.10860 301825.392000
20752 20754 1 0.13986 296436.400000
20754 20755 1 0.10860 301825.392000
20754 20756 1 0.13986 296436.400000
20756 20757 1 0.10860 301825.392000
20758 20759 1 0.10860 301825.392000
20759 20760 1 0.13986 296436.400000
20759 20768 1 0.13986 296436.400000
20760 20761 1 0.18850 35430.112000
20760 20762 1 0.13986 296436.400000
20762 20763 1 0.10860 301825.392000
20762 20764 1 0.13986 296436.400000
20764 20765 1 0.10860 301825.392000
20764 20766 1 0.13986 296436.400000
20766 20767 1 0.10860 301825.392000
20766 20768 1 0.13986 296436.400000
20768 20769 1 0.10860 301825.392000
20770 20771 1 0.10860 301825.392000
20771 20772 1 0.13986 296436.400000
20771 20780 1 0.13986 296436.400000
20772 20773 1 0.18850 35430.112000
20772 20774 1 0.13986 296436.400000
20774 20775 1 0.10860 301825.392000
20774 20776 1 0.13986 296436.400000
20776 20777 1 0.10860 301825.392000
20776 20778 1 0.13986 296436.400000
20778 20779 1 0.10860 301825.392000
20778 20780 1 0.13986 296436.400000
20780 20781 1 0.10860 301825.392000
20782 20783 1 0.10860 301825.392000
20783 20784 1 0.13986 296436.400000
20783 20792 1 0.13986 296436.400000
20784 20785 1 0.18850 35430.112000
20784 20786 1 0.13986 296436.400000
20786 20787 1 0.10860 301825.392000
20786 20788 1 0.13986 296436.400000
20788 20789 1 0.10860 301825.392000
20788 20790 1 0.13986 296436.400000
20790 20791 1 0.10860 301825.392000
20790 20792 1 0.13986 296436.400000
20792 20793 1 0.10860 301825.392000
20794 20795 1 0.10860 301825.392000
20795 20796 1 0.13986 296436.400000
20795 20804 1 0.13986 296436.400000
20796 20797 1 0.18850 35430.112000
20796 20798 1 0.13986 296436.400000
20798 20799 1 0.10860 301825.392000
20798 20800 1 0.13986 296436.400000
20800 20801 1 0.10860 301825.392000
20800 20802 1 0.13986 296436.400000
20802 20803 1 0.10860 301825.392000
20802 20804 1 0.13986 296436.400000
20804 20805 1 0.10860 301825.392000
20806 20807 1 0.10860 301825.392000
20807 20808 1 0.13986 296436.400000
20807 20816 1 0.13986 296436.400000
20808 20809 1 0.18850 35430.112000
20808 20810 1 0.13986 296436.400000
20810 20811 1 0.10860 301825.392000
20810 20812 1 0.13986 296436.400000
20812 20813 1 0.10860 301825.392000
20812 20814 1 0.13986 296436.400000
20814 20815 1 0.10860 301825.392000
20814 20816 1 0.13986 296436.400000
20816 20817 1 0.10860 301825.392000
20818 20819 1 0.10860 301825.392000
20819 20820 1 0.13986 296436.400000
20819 20828 1 0.13986 296436.400000
20820 20821 1 0.18850 35430.112000
20820 20822 1 0.13986 296436.400000
20822 20823 1 0.10860 301825.392000
20822 20824 1 0.13986 296436.400000
20824 20825 1 0.10860 301825.392000
20824 20826 1 0.13986 296436.400000
20826 20827 1 0.10860 301825.392000
20826 20828 1 0.13986 296436.400000
20828 20829 1 0.10860 301825.392000
20830 20831 1 0.10860 301825.392000
20831 20832 1 0.13986 296436.400000
20831 20840 1 0.13986 296436.400000
20832 20833 1 0.18850 35430.112000
20832 20834 1 0.13986 296436.400000
20834 20835 1 0.10860 301825.392000
20834 20836 1 0.13986 296436.400000
20836 20837 1 0.10860 301825.392000
20836 20838 1 0.13986 296436.400000
20838 20839 1 0.10860 301825.392000
20838 20840 1 0.13986 296436.400000
20840 20841 1 0.10860 301825.392000
20842 20843 1 0.10860 301825.392000
20843 20844 1 0.13986 296436.400000
20843 20852 1 0.13986 296436.400000
20844 20845 1 0.18850 35430.112000
20844 20846 1 0.13986 296436.400000
20846 20847 1 0.10860 301825.392000
20846 20848 1 0.13986 296436.400000
20848 20849 1 0.10860 301825.392000
20848 20850 1 0.13986 296436.400000
20850 20851 1 0.10860 301825.392000
20850 20852 1 0.13986 296436.400000
20852 20853 1 0.10860 301825.392000
20854 20855 1 0.10860 301825.392000
20855 20856 1 0.13986 296436.400000
20855 20864 1 0.13986 296436.400000
20856 20857 1 0.18850 35430.112000
20856 20858 1 0.13986 296436.400000
20858 20859 1 0.10860 301825.392000
20858 20860 1 0.13986 296436.400000
20860 20861 1 0.10860 301825.392000
20860 20862 1 0.13986 296436.400000
20862 20863 1 0.10860 301825.392000
20862 20864 1 0.13986 296436.400000
20864 20865 1 0.10860 301825.392000
20866 20867 1 0.10860 301825.392000
20867 20868 1 0.13986 296436.400000
20867 20876 1 0.13986 296436.400000
20868 20869 1 0.18850 35430.112000
20868 20870 1 0.13986 296436.400000
20870 20871 1 0.10860 301825.392000
20870 20872 1 0.13986 296436.400000
20872 20873 1 0.10860 301825.392000
20872 20874 1 0.13986 296436.400000
20874 20875 1 0.10860 301825.392000
20874 20876 1 0.13986 296436.400000
20876 20877 1 0.10860 301825.392000
20878 20879 1 0.10860 301825.392000
20879 20880 1 0.13986 296436.400000
20879 20888 1 0.13986 296436.400000
20880 20881 1 0.18850 35430.112000
20880 20882 1 0.13986 296436.400000
20882 20883 1 0.10860 301825.392000
20882 20884 1 0.13986 296436.400000
20884 20885 1 0.10860 301825.392000
20884 20886 1 0.13986 296436.400000
20886 20887 1 0.10860 301825.392000
20886 20888 1 0.13986 296436.400000
20888 20889 1 0.10860 301825.392000
20890 20891 1 0.10860 301825.392000
20891 20892 1 0.13986 296436.400000
20891 20900 1 0.13986 296436.400000
20892 20893 1 0.18850 35430.112000
20892 20894 1 0.13986 296436.400000
20894 20895 1 0.10860 301825.392000
20894 20896 1 0.13986 296436.400000
20896 20897 1 0.10860 301825.392000
20896 20898 1 0.13986 296436.400000
20898 20899 1 0.10860 301825.392000
20898 20900 1 0.13986 296436.400000
20900 20901 1 0.10860 301825.392000
20902 20903 1 0.10860 301825.392000
20903 20904 1 0.13986 296436.400000
20903 20912 1 0.13986 296436.400000
20904 20905 1 0.18850 35430.112000
20904 20906 1 0.13986 296436.400000
20906 20907 1 0.10860 301825.392000
20906 20908 1 0.13986 296436.400000
20908 20909 1 0.10860 301825.392000
20908 20910 1 0.13986 296436.400000
20910 20911 1 0.10860 301825.392000
20910 20912 1 0.13986 296436.400000
20912 20913 1 0.10860 301825.392000
20914 20915 1 0.10860 301825.392000
20915 20916 1 0.13986 296436.400000
20915 20924 1 0.13986 296436.400000
20916 20917 1 0.18850 35430.112000
20916 20918 1 0.13986 296436.400000
20918 20919 1 0.10860 301825.392000
20918 20920 1 0.13986 296436.400000
20920 20921 1 0.10860 301825.392000
20920 20922 1 0.13986 296436.400000
20922 20923 1 0.10860 301825.392000
20922 20924 1 0.13986 296436.400000
20924 20925 1 0.10860 301825.392000
20926 20927 1 0.10860 301825.392000
20927 20928 1 0.13986 296436.400000
20927 20936 1 0.13986 296436.400000
20928 20929 1 0.18850 35430.112000
20928 20930 1 0.13986 296436.400000
20930 20931 1 0.10860 301825.392000
20930 20932 1 0.13986 296436.400000
20932 20933 1 0.10860 301825.392000
20932 20934 1 0.13986 296436.400000
20934 20935 1 0.10860 301825.392000
20934 20936 1 0.13986 296436.400000
20936 20937 1 0.10860 301825.392000
20938 20939 1 0.10860 301825.392000
20939 20940 1 0.13986 296436.400000
20939 20948 1 0.13986 296436.400000
20940 20941 1 0.18850 35430.112000
20940 20942 1 0.13986 296436.400000
20942 20943 1 0.10860 301825.392000
20942 20944 1 0.13986 296436.400000
20944 20945 1 0.10860 301825.392000
20944 20946 1 0.13986 296436.400000
20946 20947 1 0.10860 301825.392000
20946 20948 1 0.13986 296436.400000
20948 20949 1 0.10860 301825.392000
20950 20951 1 0.10860 301825.392000
20951 20952 1 0.13986 296436.400000
20951 20960 1 0.13986 296436.400000
20952 20953 1 0.18850 35430.112000
20952 20954 1 0.13986 296436.400000
20954 20955 1 0.10860 301825.392000
20954 20956 1 0.13986 296436.400000
20956 20957 1 0.10860 301825.392000
20956 20958 1 0.13986 296436.400000
20958 20959 1 0.10860 301825.392000
20958 20960 1 0.13986 296436.400000
20960 20961 1 0.10860 301825.392000
20962 20963 1 0.10860 301825.392000
20963 20964 1 0.13986 296436.400000
20963 20972 1 0.13986 296436.400000
20964 20965 1 0.18850 35430.112000
20964 20966 1 0.13986 296436.400000
20966 20967 1 0.10860 301825.392000
20966 20968 1 0.13986 296436.400000
20968 20969 1 0.10860 301825.392000
20968 20970 1 0.13986 296436.400000
20970 20971 1 0.10860 301825.392000
20970 20972 1 0.13986 296436.400000
20972 20973 1 0.10860 301825.392000
20974 20975 1 0.10860 301825.392000
20975 20976 1 0.13986 296436.400000
20975 20984 1 0.13986 296436.400000
20976 20977 1 0.18850 35430.112000
20976 20978 1 0.13986 296436.400000
20978 20979 1 0.10860 301825.392000
20978 20980 1 0.13986 296436.400000
20980 20981 1 0.10860 301825.392000
20980 20982 1 0.13986 296436.400000
20982 20983 1 0.10860 301825.392000
20982 20984 1 0.13986 296436.400000
20984 20985 1 0.10860 301825.392000
20986 20987 1 0.10860 301825.392000
20987 20988 1 0.13986 296436.400000
20987 20996 1 0.13986 296436.400000
20988 20989 1 0.18850 35430.112000
20988 20990 1 0.13986 296436.400000
20990 20991 1 0.10860 301825.392000
20990 20992 1 0.13986 296436.400000
20992 20993 1 0.10860 301825.392000
20992 20994 1 0.13986 296436.400000
20994 20995 1 0.10860 301825.392000
20994 20996 1 0.13986 296436.400000
20996 20997 1 0.10860 301825.392000
20998 20999 1 0.10860 301825.392000
20999 21000 1 0.13986 296436.400000
20999 21008 1 0.13986 296436.400000
21000 21001 1 0.18850 35430.112000
21000 21002 1 0.13986 296436.400000
21002 21003 1 0.10860 301825.392000
21002 21004 1 0.13986 296436.400000
21004 21005 1 0.10860 301825.392000
21004 21006 1 0.13986 296436.400000
21006 21007 1 0.10860 301825.392000
21006 21008 1 0.13986 296436.400000
21008 21009 1 0.10860 301825.392000
21010 21011 1 0.10860 301825.392000
21011 21012 1 0.13986 296436.400000
21011 21020 1 0.13986 296436.400000
21012 21013 1 0.18850 35430.112000
21012 21014 1 0.13986 296436.400000
21014 21015 1 0.10860 301825.392000
21014 21016 1 0.13986 296436.400000
21016 21017 1 0.10860 301825.392000
21016 21018 1 0.13986 296436.400000
21018 21019 1 0.10860 301825.392000
21018 21020 1 0.13986 296436.400000
21020 21021 1 0.10860 301825.392000
21022 21023 1 0.10860 301825.392000
21023 21024 1 0.13986 296436.400000
21023 21032 1 0.13986 296436.400000
21024 21025 1 0.18850 35430.112000
21024 21026 1 0.13986 296436.400000
21026 21027 1 0.10860 301825.392000
21026 21028 1 0.13986 296436.400000
21028 21029 1 0.10860 301825.392000
21028 21030 1 0.13986 296436.400000
21030 21031 1 0.10860 301825.392000
21030 21032 1 0.13986 296436.400000
21032 21033 1 0.10860 301825.392000
21034 21035 1 0.10860 301825.392000
21035 21036 1 0.13986 296436.400000
21035 21044 1 0.13986 296436.400000
21036 21037 1 0.18850 35430.112000
21036 21038 1 0.13986 296436.400000
21038 21039 1 0.10860 301825.392000
21038 21040 1 0.13986 296436.400000
21040 21041 1 0.10860 301825.392000
21040 21042 1 0.13986 296436.400000
21042 21043 1 0.10860 301825.392000
21042 21044 1 0.13986 296436.400000
21044 21045 1 0.10860 301825.392000
21046 21047 1 0.10860 301825.392000
21047 21048 1 0.13986 296436.400000
21047 21056 1 0.13986 296436.400000
21048 21049 1 0.18850 35430.112000
21048 21050 1 0.13986 296436.400000
21050 21051 1 0.10860 301825.392000
21050 21052 1 0.13986 296436.400000
21052 21053 1 0.10860 301825.392000
21052 21054 1 0.13986 296436.400000
21054 21055 1 0.10860 301825.392000
21054 21056 1 0.13986 296436.400000
21056 21057 1 0.10860 301825.392000
21058 21059 1 0.10860 301825.392000
21059 21060 1 0.13986 296436.400000
21059 21068 1 0.13986 296436.400000
21060 21061 1 0.18850 35430.112000
21060 21062 1 0.13986 296436.400000
21062 21063 1 0.10860 301825.392000
21062 21064 1 0.13986 296436.400000
21064 21065 1 0.10860 301825.392000
21064 21066 1 0.13986 296436.400000
21066 21067 1 0.10860 301825.392000
21066 21068 1 0.13986 296436.400000
21068 21069 1 0.10860 301825.392000
21070 21071 1 0.10860 301825.392000
21071 21072 1 0.13986 296436.400000
21071 21080 1 0.13986 296436.400000
21072 21073 1 0.18850 35430.112000
21072 21074 1 0.13986 296436.400000
21074 21075 1 0.10860 301825.392000
21074 21076 1 0.13986 296436.400000
21076 21077 1 0.10860 301825.392000
21076 21078 1 0.13986 296436.400000
21078 21079 1 0.10860 301825.392000
21078 21080 1 0.13986 296436.400000
21080 21081 1 0.10860 301825.392000
21082 21083 1 0.10860 301825.392000
21083 21084 1 0.13986 296436.400000
21083 21092 1 0.13986 296436.400000
21084 21085 1 0.18850 35430.112000
21084 21086 1 0.13986 296436.400000
21086 21087 1 0.10860 301825.392000
21086 21088 1 0.13986 296436.400000
21088 21089 1 0.10860 301825.392000
21088 21090 1 0.13986 296436.400000
21090 21091 1 0.10860 301825.392000
21090 21092 1 0.13986 296436.400000
21092 21093 1 0.10860 301825.392000
21094 21095 1 0.10860 301825.392000
21095 21096 1 0.13986 296436.400000
21095 21104 1 0.13986 296436.400000
21096 21097 1 0.18850 35430.112000
21096 21098 1 0.13986 296436.400000
21098 21099 1 0.10860 301825.392000
21098 21100 1 0.13986 296436.400000
21100 21101 1 0.10860 301825.392000
21100 21102 1 0.13986 296436.400000
21102 21103 1 0.10860 301825.392000
21102 21104 1 0.13986 296436.400000
21104 21105 1 0.10860 301825.392000
21106 21107 1 0.10860 301825.392000
21107 21108 1 0.13986 296436.400000
21107 21116 1 0.13986 296436.400000
21108 21109 1 0.18850 35430.112000
21108 21110 1 0.13986 296436.400000
21110 21111 1 0.10860 301825.392000
21110 21112 1 0.13986 296436.400000
21112 21113 1 0.10860 301825.392000
21112 21114 1 0.13986 296436.400000
21114 21115 1 0.10860 301825.392000
21114 21116 1 0.13986 296436.400000
21116 21117 1 0.10860 301825.392000
21118 21119 1 0.10860 301825.392000
21119 21120 1 0.13986 296436.400000
21119 21128 1 0.13986 296436.400000
21120 21121 1 0.18850 35430.112000
21120 21122 1 0.13986 296436.400000
21122 21123 1 0.10860 301825.392000
21122 21124 1 0.13986 296436.400000
21124 21125 1 0.10860 301825.392000
21124 21126 1 0.13986 296436.400000
21126 21127 1 0.10860 301825.392000
21126 21128 1 0.13986 296436.400000
21128 21129 1 0.10860 301825.392000
21130 21131 1 0.10860 301825.392000
21131 21132 1 0.13986 296436.400000
21131 21140 1 0.13986 296436.400000
21132 21133 1 0.18850 35430.112000
21132 21134 1 0.13986 296436.400000
21134 21135 1 0.10860 301825.392000
21134 21136 1 0.13986 296436.400000
21136 21137 1 0.10860 301825.392000
21136 21138 1 0.13986 296436.400000
21138 21139 1 0.10860 301825.392000
21138 21140 1 0.13986 296436.400000
21140 21141 1 0.10860 301825.392000
21142 21143 1 0.10860 301825.392000
21143 21144 1 0.13986 296436.400000
21143 21152 1 0.13986 296436.400000
21144 21145 1 0.18850 35430.112000
21144 21146 1 0.13986 296436.400000
21146 21147 1 0.10860 301825.392000
21146 21148 1 0.13986 296436.400000
21148 21149 1 0.10860 301825.392000
21148 21150 1 0.13986 296436.400000
21150 21151 1 0.10860 301825.392000
21150 21152 1 0.13986 296436.400000
21152 21153 1 0.10860 301825.392000
21154 21155 1 0.10860 301825.392000
21155 21156 1 0.13986 296436.400000
21155 21164 1 0.13986 296436.400000
21156 21157 1 0.18850 35430.112000
21156 21158 1 0.13986 296436.400000
21158 21159 1 0.10860 301825.392000
21158 21160 1 0.13986 296436.400000
21160 21161 1 0.10860 301825.392000
21160 21162 1 0.13986 296436.400000
21162 21163 1 0.10860 301825.392000
21162 21164 1 0.13986 296436.400000
21164 21165 1 0.10860 301825.392000
21166 21167 1 0.10860 301825.392000
21167 21168 1 0.13986 296436.400000
21167 21176 1 0.13986 296436.400000
21168 21169 1 0.18850 35430.112000
21168 21170 1 0.13986 296436.400000
21170 21171 1 0.10860 301825.392000
21170 21172 1 0.13986 296436.400000
21172 21173 1 0.10860 301825.392000
21172 21174 1 0.13986 296436.400000
21174 21175 1 0.10860 301825.392000
21174 21176 1 0.13986 296436.400000
21176 21177 1 0.10860 301825.392000
21178 21179 1 0.10860 301825.392000
21179 21180 1 0.13986 296436.400000
21179 21188 1 0.13986 296436.400000
21180 21181 1 0.18850 35430.112000
21180 21182 1 0.13986 296436.400000
21182 21183 1 0.10860 301825.392000
21182 21184 1 0.13986 296436.400000
21184 21185 1 0.10860 301825.392000
21184 21186 1 0.13986 296436.400000
21186 21187 1 0.10860 301825.392000
21186 21188 1 0.13986 296436.400000
21188 21189 1 0.10860 301825.392000
21190 21191 1 0.10860 301825.392000
21191 21192 1 0.13986 296436.400000
21191 21200 1 0.13986 296436.400000
21192 21193 1 0.18850 35430.112000
21192 21194 1 0.13986 296436.400000
21194 21195 1 0.10860 301825.392000
21194 21196 1 0.13986 296436.400000
21196 21197 1 0.10860 301825.392000
21196 21198 1 0.13986 296436.400000
21198 21199 1 0.10860 301825.392000
21198 21200 1 0.13986 296436.400000
21200 21201 1 0.10860 301825.392000
21202 21203 1 0.10860 301825.392000
21203 21204 1 0.13986 296436.400000
21203 21212 1 0.13986 296436.400000
21204 21205 1 0.18850 35430.112000
21204 21206 1 0.13986 296436.400000
21206 21207 1 0.10860 301825.392000
21206 21208 1 0.13986 296436.400000
21208 21209 1 0.10860 301825.392000
21208 21210 1 0.13986 296436.400000
21210 21211 1 0.10860 301825.392000
21210 21212 1 0.13986 296436.400000
21212 21213 1 0.10860 301825.392000
21214 21215 1 0.10860 301825.392000
21215 21216 1 0.13986 296436.400000
21215 21224 1 0.13986 296436.400000
21216 21217 1 0.18850 35430.112000
21216 21218 1 0.13986 296436.400000
21218 21219 1 0.10860 301825.392000
21218 21220 1 0.13986 296436.400000
21220 21221 1 0.10860 301825.392000
21220 21222 1 0.13986 296436.400000
21222 21223 1 0.10860 301825.392000
21222 21224 1 0.13986 296436.400000
21224 21225 1 0.10860 301825.392000
21226 21227 1 0.10860 301825.392000
21227 21228 1 0.13986 296436.400000
21227 21236 1 0.13986 296436.400000
21228 21229 1 0.18850 35430.112000
21228 21230 1 0.13986 296436.400000
21230 21231 1 0.10860 301825.392000
21230 21232 1 0.13986 296436.400000
21232 21233 1 0.10860 301825.392000
21232 21234 1 0.13986 296436.400000
21234 21235 1 0.10860 301825.392000
21234 21236 1 0.13986 296436.400000
21236 21237 1 0.10860 301825.392000
21238 21239 1 0.10860 301825.392000
21239 21240 1 0.13986 296436.400000
21239 21248 1 0.13986 296436.400000
21240 21241 1 0.18850 35430.112000
21240 21242 1 0.13986 296436.400000
21242 21243 1 0.10860 301825.392000
21242 21244 1 0.13986 296436.400000
21244 21245 1 0.10860 301825.392000
21244 21246 1 0.13986 296436.400000
21246 21247 1 0.10860 301825.392000
21246 21248 1 0.13986 296436.400000
21248 21249 1 0.10860 301825.392000
21250 21251 1 0.10860 301825.392000
21251 21252 1 0.13986 296436.400000
21251 21260 1 0.13986 296436.400000
21252 21253 1 0.18850 35430.112000
21252 21254 1 0.13986 296436.400000
21254 21255 1 0.10860 301825.392000
21254 21256 1 0.13986 296436.400000
21256 21257 1 0.10860 301825.392000
21256 21258 1 0.13986 296436.400000
21258 21259 1 0.10860 301825.392000
21258 21260 1 0.13986 296436.400000
21260 21261 1 0.10860 301825.392000
21262 21263 1 0.10860 301825.392000
21263 21264 1 0.13986 296436.400000
21263 21272 1 0.13986 296436.400000
21264 21265 1 0.18850 35430.112000
21264 21266 1 0.13986 296436.400000
21266 21267 1 0.10860 301825.392000
21266 21268 1 0.13986 296436.400000
21268 21269 1 0.10860 301825.392000
21268 21270 1 0.13986 296436.400000
21270 21271 1 0.10860 301825.392000
21270 21272 1 0.13986 296436.400000
21272 21273 1 0.10860 301825.392000
21274 21275 1 0.10860 301825.392000
21275 21276 1 0.13986 296436.400000
21275 21284 1 0.13986 296436.400000
21276 21277 1 0.18850 35430.112000
21276 21278 1 0.13986 296436.400000
21278 21279 1 0.10860 301825.392000
21278 21280 1 0.13986 296436.400000
21280 21281 1 0.10860 301825.392000
21280 21282 1 0.13986 296436.400000
21282 21283 1 0.10860 301825.392000
21282 21284 1 0.13986 296436.400000
21284 21285 1 0.10860 301825.392000
21286 21287 1 0.10860 301825.392000
21287 21288 1 0.13986 296436.400000
21287 21296 1 0.13986 296436.400000
21288 21289 1 0.18850 35430.112000
21288 21290 1 0.13986 296436.400000
21290 21291 1 0.10860 301825.392000
21290 21292 1 0.13986 296436.400000
21292 21293 1 0.10860 301825.392000
21292 21294 1 0.13986 296436.400000
21294 21295 1 0.10860 301825.392000
21294 21296 1 0.13986 296436.400000
21296 21297 1 0.10860 301825.392000
21298 21299 1 0.10860 301825.392000
21299 21300 1 0.13986 296436.400000
21299 21308 1 0.13986 296436.400000
21300 21301 1 0.18850 35430.112000
21300 21302 1 0.13986 296436.400000
21302 21303 1 0.10860 301825.392000
21302 21304 1 0.13986 296436.400000
21304 21305 1 0.10860 301825.392000
21304 21306 1 0.13986 296436.400000
21306 21307 1 0.10860 301825.392000
21306 21308 1 0.13986 296436.400000
21308 21309 1 0.10860 301825.392000
21310 21311 1 0.10860 301825.392000
21311 21312 1 0.13986 296436.400000
21311 21320 1 0.13986 296436.400000
21312 21313 1 0.18850 35430.112000
21312 21314 1 0.13986 296436.400000
21314 21315 1 0.10860 301825.392000
21314 21316 1 0.13986 296436.400000
21316 21317 1 0.10860 301825.392000
21316 21318 1 0.13986 296436.400000
21318 21319 1 0.10860 301825.392000
21318 21320 1 0.13986 296436.400000
21320 21321 1 0.10860 301825.392000
21322 21323 1 0.10860 301825.392000
21323 21324 1 0.13986 296436.400000
21323 21332 1 0.13986 296436.400000
21324 21325 1 0.18850 35430.112000
21324 21326 1 0.13986 296436.400000
21326 21327 1 0.10860 301825.392000
21326 21328 1 0.13986 296436.400000
21328 21329 1 0.10860 301825.392000
21328 21330 1 0.13986 296436.400000
21330 21331 1 0.10860 301825.392000
21330 21332 1 0.13986 296436.400000
21332 21333 1 0.10860 301825.392000
21334 21335 1 0.10860 301825.392000
21335 21336 1 0.13986 296436.400000
21335 21344 1 0.13986 296436.400000
21336 21337 1 0.18850 35430.112000
21336 21338 1 0.13986 296436.400000
21338 21339 1 0.10860 301825.392000
21338 21340 1 0.13986 296436.400000
21340 21341 1 0.10860 301825.392000
21340 21342 1 0.13986 296436.400000
21342 21343 1 0.10860 301825.392000
21342 21344 1 0.13986 296436.400000
21344 21345 1 0.10860 301825.392000
21346 21347 1 0.10860 301825.392000
21347 21348 1 0.13986 296436.400000
21347 21356 1 0.13986 296436.400000
21348 21349 1 0.18850 35430.112000
21348 21350 1 0.13986 296436.400000
21350 21351 1 0.10860 301825.392000
21350 21352 1 0.13986 296436.400000
21352 21353 1 0.10860 301825.392000
21352 21354 1 0.13986 296436.400000
21354 21355 1 0.10860 301825.392000
21354 21356 1 0.13986 296436.400000
21356 21357 1 0.10860 301825.392000
21358 21359 1 0.10860 301825.392000
21359 21360 1 0.13986 296436.400000
21359 21368 1 0.13986 296436.400000
21360 21361 1 0.18850 35430.112000
21360 21362 1 0.13986 296436.400000
21362 21363 1 0.10860 301825.392000
21362 21364 1 0.13986 296436.400000
21364 21365 1 0.10860 301825.392000
21364 21366 1 0.13986 296436.400000
21366 21367 1 0.10860 301825.392000
21366 21368 1 0.13986 296436.400000
21368 21369 1 0.10860 301825.392000
21370 21371 1 0.10860 301825.392000
21371 21372 1 0.13986 296436.400000
21371 21380 1 0.13986 296436.400000
21372 21373 1 0.18850 35430.112000
21372 21374 1 0.13986 296436.400000
21374 21375 1 0.10860 301825.392000
21374 21376 1 0.13986 296436.400000
21376 21377 1 0.10860 301825.392000
21376 21378 1 0.13986 296436.400000
21378 21379 1 0.10860 301825.392000
21378 21380 1 0.13986 296436.400000
21380 21381 1 0.10860 301825.392000
21382 21383 1 0.10860 301825.392000
21383 21384 1 0.13986 296436.400000
21383 21392 1 0.13986 296436.400000
21384 21385 1 0.18850 35430.112000
21384 21386 1 0.13986 296436.400000
21386 21387 1 0.10860 301825.392000
21386 21388 1 0.13986 296436.400000
21388 21389 1 0.10860 301825.392000
21388 21390 1 0.13986 296436.400000
21390 21391 1 0.10860 301825.392000
21390 21392 1 0.13986 296436.400000
21392 21393 1 0.10860 301825.392000
21394 21395 1 0.10860 301825.392000
21395 21396 1 0.13986 296436.400000
21395 21404 1 0.13986 296436.400000
21396 21397 1 0.18850 35430.112000
21396 21398 1 0.13986 296436.400000
21398 21399 1 0.10860 301825.392000
21398 21400 1 0.13986 296436.400000
21400 21401 1 0.10860 301825.392000
21400 21402 1 0.13986 296436.400000
21402 21403 1 0.10860 301825.392000
21402 21404 1 0.13986 296436.400000
21404 21405 1 0.10860 301825.392000
21406 21407 1 0.10860 301825.392000
21407 21408 1 0.13986 296436.400000
21407 21416 1 0.13986 296436.400000
21408 21409 1 0.18850 35430.112000
21408 21410 1 0.13986 296436.400000
21410 21411 1 0.10860 301825.392000
21410 21412 1 0.13986 296436.400000
21412 21413 1 0.10860 301825.392000
21412 21414 1 0.13986 296436.400000
21414 21415 1 0.10860 301825.392000
21414 21416 1 0.13986 296436.400000
21416 21417 1 0.10860 301825.392000
21418 21419 1 0.10860 301825.392000
21419 21420 1 0.13986 296436.400000
21419 21428 1 0.13986 296436.400000
21420 21421 1 0.18850 35430.112000
21420 21422 1 0.13986 296436.400000
21422 21423 1 0.10860 301825.392000
21422 21424 1 0.13986 296436.400000
21424 21425 1 0.10860 301825.392000
21424 21426 1 0.13986 296436.400000
21426 21427 1 0.10860 301825.392000
21426 21428 1 0.13986 296436.400000
21428 21429 1 0.10860 301825.392000
21430 21431 1 0.10860 301825.392000
21431 21432 1 0.13986 296436.400000
21431 21440 1 0.13986 296436.400000
21432 21433 1 0.18850 35430.112000
21432 21434 1 0.13986 296436.400000
21434 21435 1 0.10860 301825.392000
21434 21436 1 0.13986 296436.400000
21436 21437 1 0.10860 301825.392000
21436 21438 1 0.13986 296436.400000
21438 21439 1 0.10860 301825.392000
21438 21440 1 0.13986 296436.400000
21440 21441 1 0.10860 301825.392000
21442 21443 1 0.10860 301825.392000
21443 21444 1 0.13986 296436.400000
21443 21452 1 0.13986 296436.400000
21444 21445 1 0.18850 35430.112000
21444 21446 1 0.13986 296436.400000
21446 21447 1 0.10860 301825.392000
21446 21448 1 0.13986 296436.400000
21448 21449 1 0.10860 301825.392000
21448 21450 1 0.13986 296436.400000
21450 21451 1 0.10860 301825.392000
21450 21452 1 0.13986 296436.400000
21452 21453 1 0.10860 301825.392000
21454 21455 1 0.10860 301825.392000
21455 21456 1 0.13986 296436.400000
21455 21464 1 0.13986 296436.400000
21456 21457 1 0.18850 35430.112000
21456 21458 1 0.13986 296436.400000
21458 21459 1 0.10860 301825.392000
21458 21460 1 0.13986 296436.400000
21460 21461 1 0.10860 301825.392000
21460 21462 1 0.13986 296436.400000
21462 21463 1 0.10860 301825.392000
21462 21464 1 0.13986 296436.400000
21464 21465 1 0.10860 301825.392000
21466 21467 1 0.10860 301825.392000
21467 21468 1 0.13986 296436.400000
21467 21476 1 0.13986 296436.400000
21468 21469 1 0.18850 35430.112000
21468 21470 1 0.13986 296436.400000
21470 21471 1 0.10860 301825.392000
21470 21472 1 0.13986 296436.400000
21472 21473 1 0.10860 301825.392000
21472 21474 1 0.13986 296436.400000
21474 21475 1 0.10860 301825.392000
21474 21476 1 0.13986 296436.400000
21476 21477 1 0.10860 301825.392000
21478 21479 1 0.10860 301825.392000
21479 21480 1 0.13986 296436.400000
21479 21488 1 0.13986 296436.400000
21480 21481 1 0.18850 35430.112000
21480 21482 1 0.13986 296436.400000
21482 21483 1 0.10860 301825.392000
21482 21484 1 0.13986 296436.400000
21484 21485 1 0.10860 301825.392000
21484 21486 1 0.13986 296436.400000
21486 21487 1 0.10860 301825.392000
21486 21488 1 0.13986 296436.400000
21488 21489 1 0.10860 301825.392000
21490 21491 1 0.10860 301825.392000
21491 21492 1 0.13986 296436.400000
21491 21500 1 0.13986 296436.400000
21492 21493 1 0.18850 35430.112000
21492 21494 1 0.13986 296436.400000
21494 21495 1 0.10860 301825.392000
21494 21496 1 0.13986 296436.400000
21496 21497 1 0.10860 301825.392000
21496 21498 1 0.13986 296436.400000
21498 21499 1 0.10860 301825.392000
21498 21500 1 0.13986 296436.400000
21500 21501 1 0.10860 301825.392000
21502 21503 1 0.10860 301825.392000
21503 21504 1 0.13986 296436.400000
21503 21512 1 0.13986 296436.400000
21504 21505 1 0.18850 35430.112000
21504 21506 1 0.13986 296436.400000
21506 21507 1 0.10860 301825.392000
21506 21508 1 0.13986 296436.400000
21508 21509 1 0.10860 301825.392000
21508 21510 1 0.13986 296436.400000
21510 21511 1 0.10860 301825.392000
21510 21512 1 0.13986 296436.400000
21512 21513 1 0.10860 301825.392000
21514 21515 1 0.10860 301825.392000
21515 21516 1 0.13986 296436.400000
21515 21524 1 0.13986 296436.400000
21516 21517 1 0.18850 35430.112000
21516 21518 1 0.13986 296436.400000
21518 21519 1 0.10860 301825.392000
21518 21520 1 0.13986 296436.400000
21520 21521 1 0.10860 301825.392000
21520 21522 1 0.13986 296436.400000
21522 21523 1 0.10860 301825.392000
21522 21524 1 0.13986 296436.400000
21524 21525 1 0.10860 301825.392000
21526 21527 1 0.10860 301825.392000
21527 21528 1 0.13986 296436.400000
21527 21536 1 0.13986 296436.400000
21528 21529 1 0.18850 35430.112000
21528 21530 1 0.13986 296436.400000
21530 21531 1 0.10860 301825.392000
21530 21532 1 0.13986 296436.400000
21532 21533 1 0.10860 301825.392000
21532 21534 1 0.13986 296436.400000
21534 21535 1 0.10860 301825.392000
21534 21536 1 0.13986 296436.400000
21536 21537 1 0.10860 301825.392000
21538 21539 1 0.10860 301825.392000
21539 21540 1 0.13986 296436.400000
21539 21548 1 0.13986 296436.400000
21540 21541 1 0.18850 35430.112000
21540 21542 1 0.13986 296436.400000
21542 21543 1 0.10860 301825.392000
21542 21544 1 0.13986 296436.400000
21544 21545 1 0.10860 301825.392000
21544 21546 1 0.13986 296436.400000
21546 21547 1 0.10860 301825.392000
21546 21548 1 0.13986 296436.400000
21548 21549 1 0.10860 301825.392000
21550 21551 1 0.10860 301825.392000
21551 21552 1 0.13986 296436.400000
21551 21560 1 0.13986 296436.400000
21552 21553 1 0.18850 35430.112000
21552 21554 1 0.13986 296436.400000
21554 21555 1 0.10860 301825.392000
21554 21556 1 0.13986 296436.400000
21556 21557 1 0.10860 301825.392000
21556 21558 1 0.13986 296436.400000
21558 21559 1 0.10860 301825.392000
21558 21560 1 0.13986 296436.400000
21560 21561 1 0.10860 301825.392000
21562 21563 1 0.10860 301825.392000
21563 21564 1 0.13986 296436.400000
21563 21572 1 0.13986 296436.400000
21564 21565 1 0.18850 35430.112000
21564 21566 1 0.13986 296436.400000
21566 21567 1 0.10860 301825.392000
21566 21568 1 0.13986 296436.400000
21568 21569 1 0.10860 301825.392000
21568 21570 1 0.13986 296436.400000
21570 21571 1 0.10860 301825.392000
21570 21572 1 0.13986 296436.400000
21572 21573 1 0.10860 301825.392000
21574 21575 1 0.10860 301825.392000
21575 21576 1 0.13986 296436.400000
21575 21584 1 0.13986 296436.400000
21576 21577 1 0.18850 35430.112000
21576 21578 1 0.13986 296436.400000
21578 21579 1 0.10860 301825.392000
21578 21580 1 0.13986 296436.400000
21580 21581 1 0.10860 301825.392000
21580 21582 1 0.13986 296436.400000
21582 21583 1 0.10860 301825.392000
21582 21584 1 0.13986 296436.400000
21584 21585 1 0.10860 301825.392000
21586 21587 1 0.10860 301825.392000
21587 21588 1 0.13986 296436.400000
21587 21596 1 0.13986 296436.400000
21588 21589 1 0.18850 35430.112000
21588 21590 1 0.13986 296436.400000
21590 21591 1 0.10860 301825.392000
21590 21592 1 0.13986 296436.400000
21592 21593 1 0.10860 301825.392000
21592 21594 1 0.13986 296436.400000
21594 21595 1 0.10860 301825.392000
21594 21596 1 0.13986 296436.400000
21596 21597 1 0.10860 301825.392000
21598 21599 1 0.10860 301825.392000
21599 21600 1 0.13986 296436.400000
21599 21608 1 0.13986 296436.400000
21600 21601 1 0.18850 35430.112000
21600 21602 1 0.13986 296436.400000
21602 21603 1 0.10860 301825.392000
21602 21604 1 0.13986 296436.400000
21604 21605 1 0.10860 301825.392000
21604 21606 1 0.13986 296436.400000
21606 21607 1 0.10860 301825.392000
21606 21608 1 0.13986 296436.400000
21608 21609 1 0.10860 301825.392000
21610 21611 1 0.10860 301825.392000
21611 21612 1 0.13986 296436.400000
21611 21620 1 0.13986 296436.400000
21612 21613 1 0.18850 35430.112000
21612 21614 1 0.13986 296436.400000
21614 21615 1 0.10860 301825.392000
21614 21616 1 0.13986 296436.400000
21616 21617 1 0.10860 301825.392000
21616 21618 1 0.13986 296436.400000
21618 21619 1 0.10860 301825.392000
21618 21620 1 0.13986 296436.400000
21620 21621 1 0.10860 301825.392000
21622 21623 1 0.10860 301825.392000
21623 21624 1 0.13986 296436.400000
21623 21632 1 0.13986 296436.400000
21624 21625 1 0.18850 35430.112000
21624 21626 1 0.13986 296436.400000
21626 21627 1 0.10860 301825.392000
21626 21628 1 0.13986 296436.400000
21628 21629 1 0.10860 301825.392000
21628 21630 1 0.13986 296436.400000
21630 21631 1 0.10860 301825.392000
21630 21632 1 0.13986 296436.400000
21632 21633 1 0.10860 301825.392000
21634 21635 1 0.10860 301825.392000
21635 21636 1 0.13986 296436.400000
21635 21644 1 0.13986 296436.400000
21636 21637 1 0.18850 35430.112000
21636 21638 1 0.13986 296436.400000
21638 21639 1 0.10860 301825.392000
21638 21640 1 0.13986 296436.400000
21640 21641 1 0.10860 301825.392000
21640 21642 1 0.13986 296436.400000
21642 21643 1 0.10860 301825.392000
21642 21644 1 0.13986 296436.400000
21644 21645 1 0.10860 301825.392000
21646 21647 1 0.10860 301825.392000
21647 21648 1 0.13986 296436.400000
21647 21656 1 0.13986 296436.400000
21648 21649 1 0.18850 35430.112000
21648 21650 1 0.13986 296436.400000
21650 21651 1 0.10860 301825.392000
21650 21652 1 0.13986 296436.400000
21652 21653 1 0.10860 301825.392000
21652 21654 1 0.13986 296436.400000
21654 21655 1 0.10860 301825.392000
21654 21656 1 0.13986 296436.400000
21656 21657 1 0.10860 301825.392000
21658 21659 1 0.10860 301825.392000
21659 21660 1 0.13986 296436.400000
21659 21668 1 0.13986 296436.400000
21660 21661 1 0.18850 35430.112000
21660 21662 1 0.13986 296436.400000
21662 21663 1 0.10860 301825.392000
21662 21664 1 0.13986 296436.400000
21664 21665 1 0.10860 301825.392000
21664 21666 1 0.13986 296436.400000
21666 21667 1 0.10860 301825.392000
21666 21668 1 0.13986 296436.400000
21668 21669 1 0.10860 301825.392000
21670 21671 1 0.10860 301825.392000
21671 21672 1 0.13986 296436.400000
21671 21680 1 0.13986 296436.400000
21672 21673 1 0.18850 35430.112000
21672 21674 1 0.13986 296436.400000
21674 21675 1 0.10860 301825.392000
21674 21676 1 0.13986 296436.400000
21676 21677 1 0.10860 301825.392000
21676 21678 1 0.13986 296436.400000
21678 21679 1 0.10860 301825.392000
21678 21680 1 0.13986 296436.400000
21680 21681 1 0.10860 301825.392000
21682 21683 1 0.10860 301825.392000
21683 21684 1 0.13986 296436.400000
21683 21692 1 0.13986 296436.400000
21684 21685 1 0.18850 35430.112000
21684 21686 1 0.13986 296436.400000
21686 21687 1 0.10860 301825.392000
21686 21688 1 0.13986 296436.400000
21688 21689 1 0.10860 301825.392000
21688 21690 1 0.13986 296436.400000
21690 21691 1 0.10860 301825.392000
21690 21692 1 0.13986 296436.400000
21692 21693 1 0.10860 301825.392000
21694 21695 1 0.10860 301825.392000
21695 21696 1 0.13986 296436.400000
21695 21704 1 0.13986 296436.400000
21696 21697 1 0.18850 35430.112000
21696 21698 1 0.13986 296436.400000
21698 21699 1 0.10860 301825.392000
21698 21700 1 0.13986 296436.400000
21700 21701 1 0.10860 301825.392000
21700 21702 1 0.13986 296436.400000
21702 21703 1 0.10860 301825.392000
21702 21704 1 0.13986 296436.400000
21704 21705 1 0.10860 301825.392000
21706 21707 1 0.10860 301825.392000
21707 21708 1 0.13986 296436.400000
21707 21716 1 0.13986 296436.400000
21708 21709 1 0.18850 35430.112000
21708 21710 1 0.13986 296436.400000
21710 21711 1 0.10860 301825.392000
21710 21712 1 0.13986 296436.400000
21712 21713 1 0.10860 301825.392000
21712 21714 1 0.13986 296436.400000
21714 21715 1 0.10860 301825.392000
21714 21716 1 0.13986 296436.400000
21716 21717 1 0.10860 301825.392000
21718 21719 1 0.10860 301825.392000
21719 21720 1 0.13986 296436.400000
21719 21728 1 0.13986 296436.400000
21720 21721 1 0.18850 35430.112000
21720 21722 1 0.13986 296436.400000
21722 21723 1 0.10860 301825.392000
21722 21724 1 0.13986 296436.400000
21724 21725 1 0.10860 301825.392000
21724 21726 1 0.13986 296436.400000
21726 21727 1 0.10860 301825.392000
21726 21728 1 0.13986 296436.400000
21728 21729 1 0.10860 301825.392000
21730 21731 1 0.10860 301825.392000
21731 21732 1 0.13986 296436.400000
21731 21740 1 0.13986 296436.400000
21732 21733 1 0.18850 35430.112000
21732 21734 1 0.13986 296436.400000
21734 21735 1 0.10860 301825.392000
21734 21736 1 0.13986 296436.400000
21736 21737 1 0.10860 301825.392000
21736 21738 1 0.13986 296436.400000
21738 21739 1 0.10860 301825.392000
21738 21740 1 0.13986 296436.400000
21740 21741 1 0.10860 301825.392000
21742 21743 1 0.10860 301825.392000
21743 21744 1 0.13986 296436.400000
21743 21752 1 0.13986 296436.400000
21744 21745 1 0.18850 35430.112000
21744 21746 1 0.13986 296436.400000
21746 21747 1 0.10860 301825.392000
21746 21748 1 0.13986 296436.400000
21748 21749 1 0.10860 301825.392000
21748 21750 1 0.13986 296436.400000
21750 21751 1 0.10860 301825.392000
21750 21752 1 0.13986 296436.400000
21752 21753 1 0.10860 301825.392000
21754 21755 1 0.10860 301825.392000
21755 21756 1 0.13986 296436.400000
21755 21764 1 0.13986 296436.400000
21756 21757 1 0.18850 35430.112000
21756 21758 1 0.13986 296436.400000
21758 21759 1 0.10860 301825.392000
21758 21760 1 0.13986 296436.400000
21760 21761 1 0.10860 301825.392000
21760 21762 1 0.13986 296436.400000
21762 21763 1 0.10860 301825.392000
21762 21764 1 0.13986 296436.400000
21764 21765 1 0.10860 301825.392000
21766 21767 1 0.10860 301825.392000
21767 21768 1 0.13986 296436.400000
21767 21776 1 0.13986 296436.400000
21768 21769 1 0.18850 35430.112000
21768 21770 1 0.13986 296436.400000
21770 21771 1 0.10860 301825.392000
21770 21772 1 0.13986 296436.400000
21772 21773 1 0.10860 301825.392000
21772 21774 1 0.13986 296436.400000
21774 21775 1 0.10860 301825.392000
21774 21776 1 0.13986 296436.400000
21776 21777 1 0.10860 301825.392000
21778 21779 1 0.10860 301825.392000
21779 21780 1 0.13986 296436.400000
21779 21788 1 0.13986 296436.400000
21780 21781 1 0.18850 35430.112000
21780 21782 1 0.13986 296436.400000
21782 21783 1 0.10860 301825.392000
21782 21784 1 0.13986 296436.400000
21784 21785 1 0.10860 301825.392000
21784 21786 1 0.13986 296436.400000
21786 21787 1 0.10860 301825.392000
21786 21788 1 0.13986 296436.400000
21788 21789 1 0.10860 301825.392000
21790 21791 1 0.10860 301825.392000
21791 21792 1 0.13986 296436.400000
21791 21800 1 0.13986 296436.400000
21792 21793 1 0.18850 35430.112000
21792 21794 1 0.13986 296436.400000
21794 21795 1 0.10860 301825.392000
21794 21796 1 0.13986 296436.400000
21796 21797 1 0.10860 301825.392000
21796 21798 1 0.13986 296436.400000
21798 21799 1 0.10860 301825.392000
21798 21800 1 0.13986 296436.400000
21800 21801 1 0.10860 301825.392000
21802 21803 1 0.10860 301825.392000
21803 21804 1 0.13986 296436.400000
21803 21812 1 0.13986 296436.400000
21804 21805 1 0.18850 35430.112000
21804 21806 1 0.13986 296436.400000
21806 21807 1 0.10860 301825.392000
21806 21808 1 0.13986 296436.400000
21808 21809 1 0.10860 301825.392000
21808 21810 1 0.13986 296436.400000
21810 21811 1 0.10860 301825.392000
21810 21812 1 0.13986 296436.400000
21812 21813 1 0.10860 301825.392000
21814 21815 1 0.10860 301825.392000
21815 21816 1 0.13986 296436.400000
21815 21824 1 0.13986 296436.400000
21816 21817 1 0.18850 35430.112000
21816 21818 1 0.13986 296436.400000
21818 21819 1 0.10860 301825.392000
21818 21820 1 0.13986 296436.400000
21820 21821 1 0.10860 301825.392000
21820 21822 1 0.13986 296436.400000
21822 21823 1 0.10860 301825.392000
21822 21824 1 0.13986 296436.400000
21824 21825 1 0.10860 301825.392000
21826 21827 1 0.10860 301825.392000
21827 21828 1 0.13986 296436.400000
21827 21836 1 0.13986 296436.400000
21828 21829 1 0.18850 35430.112000
21828 21830 1 0.13986 296436.400000
21830 21831 1 0.10860 301825.392000
21830 21832 1 0.13986 296436.400000
21832 21833 1 0.10860 301825.392000
21832 21834 1 0.13986 296436.400000
21834 21835 1 0.10860 301825.392000
21834 21836 1 0.13986 296436.400000
21836 21837 1 0.10860 301825.392000
21838 21839 1 0.10860 301825.392000
21839 21840 1 0.13986 296436.400000
21839 21848 1 0.13986 296436.400000
21840 21841 1 0.18850 35430.112000
21840 21842 1 0.13986 296436.400000
21842 21843 1 0.10860 301825.392000
21842 21844 1 0.13986 296436.400000
21844 21845 1 0.10860 301825.392000
21844 21846 1 0.13986 296436.400000
21846 21847 1 0.10860 301825.392000
21846 21848 1 0.13986 296436.400000
21848 21849 1 0.10860 301825.392000
21850 21851 1 0.10860 301825.392000
21851 21852 1 0.13986 296436.400000
21851 21860 1 0.13986 296436.400000
21852 21853 1 0.18850 35430.112000
21852 21854 1 0.13986 296436.400000
21854 21855 1 0.10860 301825.392000
21854 21856 1 0.13986 296436.400000
21856 21857 1 0.10860 301825.392000
21856 21858 1 0.13986 296436.400000
21858 21859 1 0.10860 301825.392000
21858 21860 1 0.13986 296436.400000
21860 21861 1 0.10860 301825.392000
21862 21863 1 0.10860 301825.392000
21863 21864 1 0.13986 296436.400000
21863 21872 1 0.13986 296436.400000
21864 21865 1 0.18850 35430.112000
21864 21866 1 0.13986 296436.400000
21866 21867 1 0.10860 301825.392000
21866 21868 1 0.13986 296436.400000
21868 21869 1 0.10860 301825.392000
21868 21870 1 0.13986 296436.400000
21870 21871 1 0.10860 301825.392000
21870 21872 1 0.13986 296436.400000
21872 21873 1 0.10860 301825.392000
21874 21875 1 0.10860 301825.392000
21875 21876 1 0.13986 296436.400000
21875 21884 1 0.13986 296436.400000
21876 21877 1 0.18850 35430.112000
21876 21878 1 0.13986 296436.400000
21878 21879 1 0.10860 301825.392000
21878 21880 1 0.13986 296436.400000
21880 21881 1 0.10860 301825.392000
21880 21882 1 0.13986 296436.400000
21882 21883 1 0.10860 301825.392000
21882 21884 1 0.13986 296436.400000
21884 21885 1 0.10860 301825.392000
21886 21887 1 0.10860 301825.392000
21887 21888 1 0.13986 296436.400000
21887 21896 1 0.13986 296436.400000
21888 21889 1 0.18850 35430.112000
21888 21890 1 0.13986 296436.400000
21890 21891 1 0.10860 301825.392000
21890 21892 1 0.13986 296436.400000
21892 21893 1 0.10860 301825.392000
21892 21894 1 0.13986 296436.400000
21894 21895 1 0.10860 301825.392000
21894 21896 1 0.13986 296436.400000
21896 21897 1 0.10860 301825.392000
21898 21899 1 0.10860 301825.392000
21899 21900 1 0.13986 296436.400000
21899 21908 1 0.13986 296436.400000
21900 21901 1 0.18850 35430.112000
21900 21902 1 0.13986 296436.400000
21902 21903 1 0.10860 301825.392000
21902 21904 1 0.13986 296436.400000
21904 21905 1 0.10860 301825.392000
21904 21906 1 0.13986 296436.400000
21906 21907 1 0.10860 301825.392000
21906 21908 1 0.13986 296436.400000
21908 21909 1 0.10860 301825.392000
21910 21911 1 0.10860 301825.392000
21911 21912 1 0.13986 296436.400000
21911 21920 1 0.13986 296436.400000
21912 21913 1 0.18850 35430.112000
21912 21914 1 0.13986 296436.400000
21914 21915 1 0.10860 301825.392000
21914 21916 1 0.13986 296436.400000
21916 21917 1 0.10860 301825.392000
21916 21918 1 0.13986 296436.400000
21918 21919 1 0.10860 301825.392000
21918 21920 1 0.13986 296436.400000
21920 21921 1 0.10860 301825.392000
21922 21923 1 0.10860 301825.392000
21923 21924 1 0.13986 296436.400000
21923 21932 1 0.13986 296436.400000
21924 21925 1 0.18850 35430.112000
21924 21926 1 0.13986 296436.400000
21926 21927 1 0.10860 301825.392000
21926 21928 1 0.13986 296436.400000
21928 21929 1 0.10860 301825.392000
21928 21930 1 0.13986 296436.400000
21930 21931 1 0.10860 301825.392000
21930 21932 1 0.13986 296436.400000
21932 21933 1 0.10860 301825.392000
21934 21935 1 0.10860 301825.392000
21935 21936 1 0.13986 296436.400000
21935 21944 1 0.13986 296436.400000
21936 21937 1 0.18850 35430.112000
21936 21938 1 0.13986 296436.400000
21938 21939 1 0.10860 301825.392000
21938 21940 1 0.13986 296436.400000
21940 21941 1 0.10860 301825.392000
21940 21942 1 0.13986 296436.400000
21942 21943 1 0.10860 301825.392000
21942 21944 1 0.13986 296436.400000
21944 21945 1 0.10860 301825.392000
21946 21947 1 0.10860 301825.392000
21947 21948 1 0.13986 296436.400000
21947 21956 1 0.13986 296436.400000
21948 21949 1 0.18850 35430.112000
21948 21950 1 0.13986 296436.400000
21950 21951 1 0.10860 301825.392000
21950 21952 1 0.13986 296436.400000
21952 21953 1 0.10860 301825.392000
21952 21954 1 0.13986 296436.400000
21954 21955 1 0.10860 301825.392000
21954 21956 1 0.13986 296436.400000
21956 21957 1 0.10860 301825.392000
21958 21959 1 0.10860 301825.392000
21959 21960 1 0.13986 296436.400000
21959 21968 1 0.13986 296436.400000
21960 21961 1 0.18850 35430.112000
21960 21962 1 0.13986 296436.400000
21962 21963 1 0.10860 301825.392000
21962 21964 1 0.13986 296436.400000
21964 21965 1 0.10860 301825.392000
21964 21966 1 0.13986 296436.400000
21966 21967 1 0.10860 301825.392000
21966 21968 1 0.13986 296436.400000
21968 21969 1 0.10860 301825.392000
21970 21971 1 0.10860 301825.392000
21971 21972 1 0.13986 296436.400000
21971 21980 1 0.13986 296436.400000
21972 21973 1 0.18850 35430.112000
21972 21974 1 0.13986 296436.400000
21974 21975 1 0.10860 301825.392000
21974 21976 1 0.13986 296436.400000
21976 21977 1 0.10860 301825.392000
21976 21978 1 0.13986 296436.400000
21978 21979 1 0.10860 301825.392000
21978 21980 1 0.13986 296436.400000
21980 21981 1 0.10860 301825.392000
21982 21983 1 0.10860 301825.392000
21983 21984 1 0.13986 296436.400000
21983 21992 1 0.13986 296436.400000
21984 21985 1 0.18850 35430.112000
21984 21986 1 0.13986 296436.400000
21986 21987 1 0.10860 301825.392000
21986 21988 1 0.13986 296436.400000
21988 21989 1 0.10860 301825.392000
21988 21990 1 0.13986 296436.400000
21990 21991 1 0.10860 301825.392000
21990 21992 1 0.13986 296436.400000
21992 21993 1 0.10860 301825.392000
21994 21995 1 0.10860 301825.392000
21995 21996 1 0.13986 296436.400000
21995 22004 1 0.13986 296436.400000
21996 21997 1 0.18850 35430.112000
21996 21998 1 0.13986 296436.400000
21998 21999 1 0.10860 301825.392000
21998 22000 1 0.13986 296436.400000
22000 22001 1 0.10860 301825.392000
22000 22002 1 0.13986 296436.400000
22002 22003 1 0.10860 301825.392000
22002 22004 1 0.13986 296436.400000
22004 22005 1 0.10860 301825.392000
22006 22007 1 0.10860 301825.392000
22007 22008 1 0.13986 296436.400000
22007 22016 1 0.13986 296436.400000
22008 22009 1 0.18850 35430.112000
22008 22010 1 0.13986 296436.400000
22010 22011 1 0.10860 301825.392000
22010 22012 1 0.13986 296436.400000
22012 22013 1 0.10860 301825.392000
22012 22014 1 0.13986 296436.400000
22014 22015 1 0.10860 301825.392000
22014 22016 1 0.13986 296436.400000
22016 22017 1 0.10860 301825.392000
22018 22019 1 0.10860 301825.392000
22019 22020 1 0.13986 296436.400000
22019 22028 1 0.13986 296436.400000
22020 22021 1 0.18850 35430.112000
22020 22022 1 0.13986 296436.400000
22022 22023 1 0.10860 301825.392000
22022 22024 1 0.13986 296436.400000
22024 22025 1 0.10860 301825.392000
22024 22026 1 0.13986 296436.400000
22026 22027 1 0.10860 301825.392000
22026 22028 1 0.13986 296436.400000
22028 22029 1 0.10860 301825.392000
22030 22031 1 0.10860 301825.392000
22031 22032 1 0.13986 296436.400000
22031 22040 1 0.13986 296436.400000
22032 22033 1 0.18850 35430.112000
22032 22034 1 0.13986 296436.400000
22034 22035 1 0.10860 301825.392000
22034 22036 1 0.13986 296436.400000
22036 22037 1 0.10860 301825.392000
22036 22038 1 0.13986 296436.400000
22038 22039 1 0.10860 301825.392000
22038 22040 1 0.13986 296436.400000
22040 22041 1 0.10860 301825.392000
22042 22043 1 0.10860 301825.392000
22043 22044 1 0.13986 296436.400000
22043 22052 1 0.13986 296436.400000
22044 22045 1 0.18850 35430.112000
22044 22046 1 0.13986 296436.400000
22046 22047 1 0.10860 301825.392000
22046 22048 1 0.13986 296436.400000
22048 22049 1 0.10860 301825.392000
22048 22050 1 0.13986 296436.400000
22050 22051 1 0.10860 301825.392000
22050 22052 1 0.13986 296436.400000
22052 22053 1 0.10860 301825.392000
22054 22055 1 0.10860 301825.392000
22055 22056 1 0.13986 296436.400000
22055 22064 1 0.13986 296436.400000
22056 22057 1 0.18850 35430.112000
22056 22058 1 0.13986 296436.400000
22058 22059 1 0.10860 301825.392000
22058 22060 1 0.13986 296436.400000
22060 22061 1 0.10860 301825.392000
22060 22062 1 0.13986 296436.400000
22062 22063 1 0.10860 301825.392000
22062 22064 1 0.13986 296436.400000
22064 22065 1 0.10860 301825.392000
22066 22067 1 0.10860 301825.392000
22067 22068 1 0.13986 296436.400000
22067 22076 1 0.13986 296436.400000
22068 22069 1 0.18850 35430.112000
22068 22070 1 0.13986 296436.400000
22070 22071 1 0.10860 301825.392000
22070 22072 1 0.13986 296436.400000
22072 22073 1 0.10860 301825.392000
22072 22074 1 0.13986 296436.400000
22074 22075 1 0.10860 301825.392000
22074 22076 1 0.13986 296436.400000
22076 22077 1 0.10860 301825.392000
22078 22079 1 0.10860 301825.392000
22079 22080 1 0.13986 296436.400000
22079 22088 1 0.13986 296436.400000
22080 22081 1 0.18850 35430.112000
22080 22082 1 0.13986 296436.400000
22082 22083 1 0.10860 301825.392000
22082 22084 1 0.13986 296436.400000
22084 22085 1 0.10860 301825.392000
22084 22086 1 0.13986 296436.400000
22086 22087 1 0.10860 301825.392000
22086 22088 1 0.13986 296436.400000
22088 22089 1 0.10860 301825.392000
22090 22091 1 0.10860 301825.392000
22091 22092 1 0.13986 296436.400000
22091 22100 1 0.13986 296436.400000
22092 22093 1 0.18850 35430.112000
22092 22094 1 0.13986 296436.400000
22094 22095 1 0.10860 301825.392000
22094 22096 1 0.13986 296436.400000
22096 22097 1 0.10860 301825.392000
22096 22098 1 0.13986 296436.400000
22098 22099 1 0.10860 301825.392000
22098 22100 1 0.13986 296436.400000
22100 22101 1 0.10860 301825.392000
22102 22103 1 0.10860 301825.392000
22103 22104 1 0.13986 296436.400000
22103 22112 1 0.13986 296436.400000
22104 22105 1 0.18850 35430.112000
22104 22106 1 0.13986 296436.400000
22106 22107 1 0.10860 301825.392000
22106 22108 1 0.13986 296436.400000
22108 22109 1 0.10860 301825.392000
22108 22110 1 0.13986 296436.400000
22110 22111 1 0.10860 301825.392000
22110 22112 1 0.13986 296436.400000
22112 22113 1 0.10860 301825.392000
22114 22115 1 0.10860 301825.392000
22115 22116 1 0.13986 296436.400000
22115 22124 1 0.13986 296436.400000
22116 22117 1 0.18850 35430.112000
22116 22118 1 0.13986 296436.400000
22118 22119 1 0.10860 301825.392000
22118 22120 1 0.13986 296436.400000
22120 22121 1 0.10860 301825.392000
22120 22122 1 0.13986 296436.400000
22122 22123 1 0.10860 301825.392000
22122 22124 1 0.13986 296436.400000
22124 22125 1 0.10860 301825.392000
22126 22127 1 0.10860 301825.392000
22127 22128 1 0.13986 296436.400000
22127 22136 1 0.13986 296436.400000
22128 22129 1 0.18850 35430.112000
22128 22130 1 0.13986 296436.400000
22130 22131 1 0.10860 301825.392000
22130 22132 1 0.13986 296436.400000
22132 22133 1 0.10860 301825.392000
22132 22134 1 0.13986 296436.400000
22134 22135 1 0.10860 301825.392000
22134 22136 1 0.13986 296436.400000
22136 22137 1 0.10860 301825.392000
22138 22139 1 0.10860 301825.392000
22139 22140 1 0.13986 296436.400000
22139 22148 1 0.13986 296436.400000
22140 22141 1 0.18850 35430.112000
22140 22142 1 0.13986 296436.400000
22142 22143 1 0.10860 301825.392000
22142 22144 1 0.13986 296436.400000
22144 22145 1 0.10860 301825.392000
22144 22146 1 0.13986 296436.400000
22146 22147 1 0.10860 301825.392000
22146 22148 1 0.13986 296436.400000
22148 22149 1 0.10860 301825.392000
22150 22151 1 0.10860 301825.392000
22151 22152 1 0.13986 296436.400000
22151 22160 1 0.13986 296436.400000
22152 22153 1 0.18850 35430.112000
22152 22154 1 0.13986 296436.400000
22154 22155 1 0.10860 301825.392000
22154 22156 1 0.13986 296436.400000
22156 22157 1 0.10860 301825.392000
22156 22158 1 0.13986 296436.400000
22158 22159 1 0.10860 301825.392000
22158 22160 1 0.13986 296436.400000
22160 22161 1 0.10860 301825.392000
22162 22163 1 0.10860 301825.392000
22163 22164 1 0.13986 296436.400000
22163 22172 1 0.13986 296436.400000
22164 22165 1 0.18850 35430.112000
22164 22166 1 0.13986 296436.400000
22166 22167 1 0.10860 301825.392000
22166 22168 1 0.13986 296436.400000
22168 22169 1 0.10860 301825.392000
22168 22170 1 0.13986 296436.400000
22170 22171 1 0.10860 301825.392000
22170 22172 1 0.13986 296436.400000
22172 22173 1 0.10860 301825.392000
22174 22175 1 0.10860 301825.392000
22175 22176 1 0.13986 296436.400000
22175 22184 1 0.13986 296436.400000
22176 22177 1 0.18850 35430.112000
22176 22178 1 0.13986 296436.400000
22178 22179 1 0.10860 301825.392000
22178 22180 1 0.13986 296436.400000
22180 22181 1 0.10860 301825.392000
22180 22182 1 0.13986 296436.400000
22182 22183 1 0.10860 301825.392000
22182 22184 1 0.13986 296436.400000
22184 22185 1 0.10860 301825.392000
22186 22187 1 0.10860 301825.392000
22187 22188 1 0.13986 296436.400000
22187 22196 1 0.13986 296436.400000
22188 22189 1 0.18850 35430.112000
22188 22190 1 0.13986 296436.400000
22190 22191 1 0.10860 301825.392000
22190 22192 1 0.13986 296436.400000
22192 22193 1 0.10860 301825.392000
22192 22194 1 0.13986 296436.400000
22194 22195 1 0.10860 301825.392000
22194 22196 1 0.13986 296436.400000
22196 22197 1 0.10860 301825.392000
22198 22199 1 0.10860 301825.392000
22199 22200 1 0.13986 296436.400000
22199 22208 1 0.13986 296436.400000
22200 22201 1 0.18850 35430.112000
22200 22202 1 0.13986 296436.400000
22202 22203 1 0.10860 301825.392000
22202 22204 1 0.13986 296436.400000
22204 22205 1 0.10860 301825.392000
22204 22206 1 0.13986 296436.400000
22206 22207 1 0.10860 301825.392000
22206 22208 1 0.13986 296436.400000
22208 22209 1 0.10860 301825.392000
22210 22211 1 0.10860 301825.392000
22211 22212 1 0.13986 296436.400000
22211 22220 1 0.13986 296436.400000
22212 22213 1 0.18850 35430.112000
22212 22214 1 0.13986 296436.400000
22214 22215 1 0.10860 301825.392000
22214 22216 1 0.13986 296436.400000
22216 22217 1 0.10860 301825.392000
22216 22218 1 0.13986 296436.400000
22218 22219 1 0.10860 301825.392000
22218 22220 1 0.13986 296436.400000
22220 22221 1 0.10860 301825.392000
22222 22223 1 0.10860 301825.392000
22223 22224 1 0.13986 296436.400000
22223 22232 1 0.13986 296436.400000
22224 22225 1 0.18850 35430.112000
22224 22226 1 0.13986 296436.400000
22226 22227 1 0.10860 301825.392000
22226 22228 1 0.13986 296436.400000
22228 22229 1 0.10860 301825.392000
22228 22230 1 0.13986 296436.400000
22230 22231 1 0.10860 301825.392000
22230 22232 1 0.13986 296436.400000
22232 22233 1 0.10860 301825.392000
22234 22235 1 0.10860 301825.392000
22235 22236 1 0.13986 296436.400000
22235 22244 1 0.13986 296436.400000
22236 22237 1 0.18850 35430.112000
22236 22238 1 0.13986 296436.400000
22238 22239 1 0.10860 301825.392000
22238 22240 1 0.13986 296436.400000
22240 22241 1 0.10860 301825.392000
22240 22242 1 0.13986 296436.400000
22242 22243 1 0.10860 301825.392000
22242 22244 1 0.13986 296436.400000
22244 22245 1 0.10860 301825.392000
22246 22247 1 0.10860 301825.392000
22247 22248 1 0.13986 296436.400000
22247 22256 1 0.13986 296436.400000
22248 22249 1 0.18850 35430.112000
22248 22250 1 0.13986 296436.400000
22250 22251 1 0.10860 301825.392000
22250 22252 1 0.13986 296436.400000
22252 22253 1 0.10860 301825.392000
22252 22254 1 0.13986 296436.400000
22254 22255 1 0.10860 301825.392000
22254 22256 1 0.13986 296436.400000
22256 22257 1 0.10860 301825.392000
22258 22259 1 0.10860 301825.392000
22259 22260 1 0.13986 296436.400000
22259 22268 1 0.13986 296436.400000
22260 22261 1 0.18850 35430.112000
22260 22262 1 0.13986 296436.400000
22262 22263 1 0.10860 301825.392000
22262 22264 1 0.13986 296436.400000
22264 22265 1 0.10860 301825.392000
22264 22266 1 0.13986 296436.400000
22266 22267 1 0.10860 301825.392000
22266 22268 1 0.13986 296436.400000
22268 22269 1 0.10860 301825.392000
22270 22271 1 0.10860 301825.392000
22271 22272 1 0.13986 296436.400000
22271 22280 1 0.13986 296436.400000
22272 22273 1 0.18850 35430.112000
22272 22274 1 0.13986 296436.400000
22274 22275 1 0.10860 301825.392000
22274 22276 1 0.13986 296436.400000
22276 22277 1 0.10860 301825.392000
22276 22278 1 0.13986 296436.400000
22278 22279 1 0.10860 301825.392000
22278 22280 1 0.13986 296436.400000
22280 22281 1 0.10860 301825.392000
22282 22283 1 0.10860 301825.392000
22283 22284 1 0.13986 296436.400000
22283 22292 1 0.13986 296436.400000
22284 22285 1 0.18850 35430.112000
22284 22286 1 0.13986 296436.400000
22286 22287 1 0.10860 301825.392000
22286 22288 1 0.13986 296436.400000
22288 22289 1 0.10860 301825.392000
22288 22290 1 0.13986 296436.400000
22290 22291 1 0.10860 301825.392000
22290 22292 1 0.13986 296436.400000
22292 22293 1 0.10860 301825.392000
22294 22295 1 0.10860 301825.392000
22295 22296 1 0.13986 296436.400000
22295 22304 1 0.13986 296436.400000
22296 22297 1 0.18850 35430.112000
22296 22298 1 0.13986 296436.400000
22298 22299 1 0.10860 301825.392000
22298 22300 1 0.13986 296436.400000
22300 22301 1 0.10860 301825.392000
22300 22302 1 0.13986 296436.400000
22302 22303 1 0.10860 301825.392000
22302 22304 1 0.13986 296436.400000
22304 22305 1 0.10860 301825.392000
22306 22307 1 0.10860 301825.392000
22307 22308 1 0.13986 296436.400000
22307 22316 1 0.13986 296436.400000
22308 22309 1 0.18850 35430.112000
22308 22310 1 0.13986 296436.400000
22310 22311 1 0.10860 301825.392000
22310 22312 1 0.13986 296436.400000
22312 22313 1 0.10860 301825.392000
22312 22314 1 0.13986 296436.400000
22314 22315 1 0.10860 301825.392000
22314 22316 1 0.13986 296436.400000
22316 22317 1 0.10860 301825.392000
22318 22319 1 0.10860 301825.392000
22319 22320 1 0.13986 296436.400000
22319 22328 1 0.13986 296436.400000
22320 22321 1 0.18850 35430.112000
22320 22322 1 0.13986 296436.400000
22322 22323 1 0.10860 301825.392000
22322 22324 1 0.13986 296436.400000
22324 22325 1 0.10860 301825.392000
22324 22326 1 0.13986 296436.400000
22326 22327 1 0.10860 301825.392000
22326 22328 1 0.13986 296436.400000
22328 22329 1 0.10860 301825.392000
22330 22331 1 0.10860 301825.392000
22331 22332 1 0.13986 296436.400000
22331 22340 1 0.13986 296436.400000
22332 22333 1 0.18850 35430.112000
22332 22334 1 0.13986 296436.400000
22334 22335 1 0.10860 301825.392000
22334 22336 1 0.13986 296436.400000
22336 22337 1 0.10860 301825.392000
22336 22338 1 0.13986 296436.400000
22338 22339 1 0.10860 301825.392000
22338 22340 1 0.13986 296436.400000
22340 22341 1 0.10860 301825.392000
22342 22343 1 0.10860 301825.392000
22343 22344 1 0.13986 296436.400000
22343 22352 1 0.13986 296436.400000
22344 22345 1 0.18850 35430.112000
22344 22346 1 0.13986 296436.400000
22346 22347 1 0.10860 301825.392000
22346 22348 1 0.13986 296436.400000
22348 22349 1 0.10860 301825.392000
22348 22350 1 0.13986 296436.400000
22350 22351 1 0.10860 301825.392000
22350 22352 1 0.13986 296436.400000
22352 22353 1 0.10860 301825.392000
22354 22355 1 0.10860 301825.392000
22355 22356 1 0.13986 296436.400000
22355 22364 1 0.13986 296436.400000
22356 22357 1 0.18850 35430.112000
22356 22358 1 0.13986 296436.400000
22358 22359 1 0.10860 301825.392000
22358 22360 1 0.13986 296436.400000
22360 22361 1 0.10860 301825.392000
22360 22362 1 0.13986 296436.400000
22362 22363 1 0.10860 301825.392000
22362 22364 1 0.13986 296436.400000
22364 22365 1 0.10860 301825.392000
22366 22367 1 0.10860 301825.392000
22367 22368 1 0.13986 296436.400000
22367 22376 1 0.13986 296436.400000
22368 22369 1 0.18850 35430.112000
22368 22370 1 0.13986 296436.400000
22370 22371 1 0.10860 301825.392000
22370 22372 1 0.13986 296436.400000
22372 22373 1 0.10860 301825.392000
22372 22374 1 0.13986 296436.400000
22374 22375 1 0.10860 301825.392000
22374 22376 1 0.13986 296436.400000
22376 22377 1 0.10860 301825.392000
22378 22379 1 0.10860 301825.392000
22379 22380 1 0.13986 296436.400000
22379 22388 1 0.13986 296436.400000
22380 22381 1 0.18850 35430.112000
22380 22382 1 0.13986 296436.400000
22382 22383 1 0.10860 301825.392000
22382 22384 1 0.13986 296436.400000
22384 22385 1 0.10860 301825.392000
22384 22386 1 0.13986 296436.400000
22386 22387 1 0.10860 301825.392000
22386 22388 1 0.13986 296436.400000
22388 22389 1 0.10860 301825.392000
22390 22391 1 0.10860 301825.392000
22391 22392 1 0.13986 296436.400000
22391 22400 1 0.13986 296436.400000
22392 22393 1 0.18850 35430.112000
22392 22394 1 0.13986 296436.400000
22394 22395 1 0.10860 301825.392000
22394 22396 1 0.13986 296436.400000
22396 22397 1 0.10860 301825.392000
22396 22398 1 0.13986 296436.400000
22398 22399 1 0.10860 301825.392000
22398 22400 1 0.13986 296436.400000
22400 22401 1 0.10860 301825.392000
22402 22403 1 0.10860 301825.392000
22403 22404 1 0.13986 296436.400000
22403 22412 1 0.13986 296436.400000
22404 22405 1 0.18850 35430.112000
22404 22406 1 0.13986 296436.400000
22406 22407 1 0.10860 301825.392000
22406 22408 1 0.13986 296436.400000
22408 22409 1 0.10860 301825.392000
22408 22410 1 0.13986 296436.400000
22410 22411 1 0.10860 301825.392000
22410 22412 1 0.13986 296436.400000
22412 22413 1 0.10860 301825.392000
22414 22415 1 0.10860 301825.392000
22415 22416 1 0.13986 296436.400000
22415 22424 1 0.13986 296436.400000
22416 22417 1 0.18850 35430.112000
22416 22418 1 0.13986 296436.400000
22418 22419 1 0.10860 301825.392000
22418 22420 1 0.13986 296436.400000
22420 22421 1 0.10860 301825.392000
22420 22422 1 0.13986 296436.400000
22422 22423 1 0.10860 301825.392000
22422 22424 1 0.13986 296436.400000
22424 22425 1 0.10860 301825.392000
22426 22427 1 0.10860 301825.392000
22427 22428 1 0.13986 296436.400000
22427 22436 1 0.13986 296436.400000
22428 22429 1 0.18850 35430.112000
22428 22430 1 0.13986 296436.400000
22430 22431 1 0.10860 301825.392000
22430 22432 1 0.13986 296436.400000
22432 22433 1 0.10860 301825.392000
22432 22434 1 0.13986 296436.400000
22434 22435 1 0.10860 301825.392000
22434 22436 1 0.13986 296436.400000
22436 22437 1 0.10860 301825.392000
22438 22439 1 0.10860 301825.392000
22439 22440 1 0.13986 296436.400000
22439 22448 1 0.13986 296436.400000
22440 22441 1 0.18850 35430.112000
22440 22442 1 0.13986 296436.400000
22442 22443 1 0.10860 301825.392000
22442 22444 1 0.13986 296436.400000
22444 22445 1 0.10860 301825.392000
22444 22446 1 0.13986 296436.400000
22446 22447 1 0.10860 301825.392000
22446 22448 1 0.13986 296436.400000
22448 22449 1 0.10860 301825.392000
22450 22451 1 0.10860 301825.392000
22451 22452 1 0.13986 296436.400000
22451 22460 1 0.13986 296436.400000
22452 22453 1 0.18850 35430.112000
22452 22454 1 0.13986 296436.400000
22454 22455 1 0.10860 301825.392000
22454 22456 1 0.13986 296436.400000
22456 22457 1 0.10860 301825.392000
22456 22458 1 0.13986 296436.400000
22458 22459 1 0.10860 301825.392000
22458 22460 1 0.13986 296436.400000
22460 22461 1 0.10860 301825.392000
22462 22463 1 0.10860 301825.392000
22463 22464 1 0.13986 296436.400000
22463 22472 1 0.13986 296436.400000
22464 22465 1 0.18850 35430.112000
22464 22466 1 0.13986 296436.400000
22466 22467 1 0.10860 301825.392000
22466 22468 1 0.13986 296436.400000
22468 22469 1 0.10860 301825.392000
22468 22470 1 0.13986 296436.400000
22470 22471 1 0.10860 301825.392000
22470 22472 1 0.13986 296436.400000
22472 22473 1 0.10860 301825.392000
22474 22475 1 0.10860 301825.392000
22475 22476 1 0.13986 296436.400000
22475 22484 1 0.13986 296436.400000
22476 22477 1 0.18850 35430.112000
22476 22478 1 0.13986 296436.400000
22478 22479 1 0.10860 301825.392000
22478 22480 1 0.13986 296436.400000
22480 22481 1 0.10860 301825.392000
22480 22482 1 0.13986 296436.400000
22482 22483 1 0.10860 301825.392000
22482 22484 1 0.13986 296436.400000
22484 22485 1 0.10860 301825.392000
22486 22487 1 0.10860 301825.392000
22487 22488 1 0.13986 296436.400000
22487 22496 1 0.13986 296436.400000
22488 22489 1 0.18850 35430.112000
22488 22490 1 0.13986 296436.400000
22490 22491 1 0.10860 301825.392000
22490 22492 1 0.13986 296436.400000
22492 22493 1 0.10860 301825.392000
22492 22494 1 0.13986 296436.400000
22494 22495 1 0.10860 301825.392000
22494 22496 1 0.13986 296436.400000
22496 22497 1 0.10860 301825.392000
22498 22499 1 0.10860 301825.392000
22499 22500 1 0.13986 296436.400000
22499 22508 1 0.13986 296436.400000
22500 22501 1 0.18850 35430.112000
22500 22502 1 0.13986 296436.400000
22502 22503 1 0.10860 301825.392000
22502 22504 1 0.13986 296436.400000
22504 22505 1 0.10860 301825.392000
22504 22506 1 0.13986 296436.400000
22506 22507 1 0.10860 301825.392000
22506 22508 1 0.13986 296436.400000
22508 22509 1 0.10860 301825.392000
22510 22511 1 0.10860 301825.392000
22511 22512 1 0.13986 296436.400000
22511 22520 1 0.13986 296436.400000
22512 22513 1 0.18850 35430.112000
22512 22514 1 0.13986 296436.400000
22514 22515 1 0.10860 301825.392000
22514 22516 1 0.13986 296436.400000
22516 22517 1 0.10860 301825.392000
22516 22518 1 0.13986 296436.400000
22518 22519 1 0.10860 301825.392000
22518 22520 1 0.13986 296436.400000
22520 22521 1 0.10860 301825.392000
22522 22523 1 0.10860 301825.392000
22523 22524 1 0.13986 296436.400000
22523 22532 1 0.13986 296436.400000
22524 22525 1 0.18850 35430.112000
22524 22526 1 0.13986 296436.400000
22526 22527 1 0.10860 301825.392000
22526 22528 1 0.13986 296436.400000
22528 22529 1 0.10860 301825.392000
22528 22530 1 0.13986 296436.400000
22530 22531 1 0.10860 301825.392000
22530 22532 1 0.13986 296436.400000
22532 22533 1 0.10860 301825.392000
22534 22535 1 0.10860 301825.392000
22535 22536 1 0.13986 296436.400000
22535 22544 1 0.13986 296436.400000
22536 22537 1 0.18850 35430.112000
22536 22538 1 0.13986 296436.400000
22538 22539 1 0.10860 301825.392000
22538 22540 1 0.13986 296436.400000
22540 22541 1 0.10860 301825.392000
22540 22542 1 0.13986 296436.400000
22542 22543 1 0.10860 301825.392000
22542 22544 1 0.13986 296436.400000
22544 22545 1 0.10860 301825.392000
22546 22547 1 0.10860 301825.392000
22547 22548 1 0.13986 296436.400000
22547 22556 1 0.13986 296436.400000
22548 22549 1 0.18850 35430.112000
22548 22550 1 0.13986 296436.400000
22550 22551 1 0.10860 301825.392000
22550 22552 1 0.13986 296436.400000
22552 22553 1 0.10860 301825.392000
22552 22554 1 0.13986 296436.400000
22554 22555 1 0.10860 301825.392000
22554 22556 1 0.13986 296436.400000
22556 22557 1 0.10860 301825.392000
22558 22559 1 0.10860 301825.392000
22559 22560 1 0.13986 296436.400000
22559 22568 1 0.13986 296436.400000
22560 22561 1 0.18850 35430.112000
22560 22562 1 0.13986 296436.400000
22562 22563 1 0.10860 301825.392000
22562 22564 1 0.13986 296436.400000
22564 22565 1 0.10860 301825.392000
22564 22566 1 0.13986 296436.400000
22566 22567 1 0.10860 301825.392000
22566 22568 1 0.13986 296436.400000
22568 22569 1 0.10860 301825.392000
22570 22571 1 0.10860 301825.392000
22571 22572 1 0.13986 296436.400000
22571 22580 1 0.13986 296436.400000
22572 22573 1 0.18850 35430.112000
22572 22574 1 0.13986 296436.400000
22574 22575 1 0.10860 301825.392000
22574 22576 1 0.13986 296436.400000
22576 22577 1 0.10860 301825.392000
22576 22578 1 0.13986 296436.400000
22578 22579 1 0.10860 301825.392000
22578 22580 1 0.13986 296436.400000
22580 22581 1 0.10860 301825.392000
22582 22583 1 0.10860 301825.392000
22583 22584 1 0.13986 296436.400000
22583 22592 1 0.13986 296436.400000
22584 22585 1 0.18850 35430.112000
22584 22586 1 0.13986 296436.400000
22586 22587 1 0.10860 301825.392000
22586 22588 1 0.13986 296436.400000
22588 22589 1 0.10860 301825.392000
22588 22590 1 0.13986 296436.400000
22590 22591 1 0.10860 301825.392000
22590 22592 1 0.13986 296436.400000
22592 22593 1 0.10860 301825.392000
22594 22595 1 0.10860 301825.392000
22595 22596 1 0.13986 296436.400000
22595 22604 1 0.13986 296436.400000
22596 22597 1 0.18850 35430.112000
22596 22598 1 0.13986 296436.400000
22598 22599 1 0.10860 301825.392000
22598 22600 1 0.13986 296436.400000
22600 22601 1 0.10860 301825.392000
22600 22602 1 0.13986 296436.400000
22602 22603 1 0.10860 301825.392000
22602 22604 1 0.13986 296436.400000
22604 22605 1 0.10860 301825.392000
22606 22607 1 0.10860 301825.392000
22607 22608 1 0.13986 296436.400000
22607 22616 1 0.13986 296436.400000
22608 22609 1 0.18850 35430.112000
22608 22610 1 0.13986 296436.400000
22610 22611 1 0.10860 301825.392000
22610 22612 1 0.13986 296436.400000
22612 22613 1 0.10860 301825.392000
22612 22614 1 0.13986 296436.400000
22614 22615 1 0.10860 301825.392000
22614 22616 1 0.13986 296436.400000
22616 22617 1 0.10860 301825.392000
22618 22619 1 0.10860 301825.392000
22619 22620 1 0.13986 296436.400000
22619 22628 1 0.13986 296436.400000
22620 22621 1 0.18850 35430.112000
22620 22622 1 0.13986 296436.400000
22622 22623 1 0.10860 301825.392000
22622 22624 1 0.13986 296436.400000
22624 22625 1 0.10860 301825.392000
22624 22626 1 0.13986 296436.400000
22626 22627 1 0.10860 301825.392000
22626 22628 1 0.13986 296436.400000
22628 22629 1 0.10860 301825.392000
22630 22631 1 0.10860 301825.392000
22631 22632 1 0.13986 296436.400000
22631 22640 1 0.13986 296436.400000
22632 22633 1 0.18850 35430.112000
22632 22634 1 0.13986 296436.400000
22634 22635 1 0.10860 301825.392000
22634 22636 1 0.13986 296436.400000
22636 22637 1 0.10860 301825.392000
22636 22638 1 0.13986 296436.400000
22638 22639 1 0.10860 301825.392000
22638 22640 1 0.13986 296436.400000
22640 22641 1 0.10860 301825.392000
22642 22643 1 0.10860 301825.392000
22643 22644 1 0.13986 296436.400000
22643 22652 1 0.13986 296436.400000
22644 22645 1 0.18850 35430.112000
22644 22646 1 0.13986 296436.400000
22646 22647 1 0.10860 301825.392000
22646 22648 1 0.13986 296436.400000
22648 22649 1 0.10860 301825.392000
22648 22650 1 0.13986 296436.400000
22650 22651 1 0.10860 301825.392000
22650 22652 1 0.13986 296436.400000
22652 22653 1 0.10860 301825.392000
22654 22655 1 0.10860 301825.392000
22655 22656 1 0.13986 296436.400000
22655 22664 1 0.13986 296436.400000
22656 22657 1 0.18850 35430.112000
22656 22658 1 0.13986 296436.400000
22658 22659 1 0.10860 301825.392000
22658 22660 1 0.13986 296436.400000
22660 22661 1 0.10860 301825.392000
22660 22662 1 0.13986 296436.400000
22662 22663 1 0.10860 301825.392000
22662 22664 1 0.13986 296436.400000
22664 22665 1 0.10860 301825.392000
22666 22667 1 0.10860 301825.392000
22667 22668 1 0.13986 296436.400000
22667 22676 1 0.13986 296436.400000
22668 22669 1 0.18850 35430.112000
22668 22670 1 0.13986 296436.400000
22670 22671 1 0.10860 301825.392000
22670 22672 1 0.13986 296436.400000
22672 22673 1 0.10860 301825.392000
22672 22674 1 0.13986 296436.400000
22674 22675 1 0.10860 301825.392000
22674 22676 1 0.13986 296436.400000
22676 22677 1 0.10860 301825.392000
22678 22679 1 0.10860 301825.392000
22679 22680 1 0.13986 296436.400000
22679 22688 1 0.13986 296436.400000
22680 22681 1 0.18850 35430.112000
22680 22682 1 0.13986 296436.400000
22682 22683 1 0.10860 301825.392000
22682 22684 1 0.13986 296436.400000
22684 22685 1 0.10860 301825.392000
22684 22686 1 0.13986 296436.400000
22686 22687 1 0.10860 301825.392000
22686 22688 1 0.13986 296436.400000
22688 22689 1 0.10860 301825.392000
22690 22691 1 0.10860 301825.392000
22691 22692 1 0.13986 296436.400000
22691 22700 1 0.13986 296436.400000
22692 22693 1 0.18850 35430.112000
22692 22694 1 0.13986 296436.400000
22694 22695 1 0.10860 301825.392000
22694 22696 1 0.13986 296436.400000
22696 22697 1 0.10860 301825.392000
22696 22698 1 0.13986 296436.400000
22698 22699 1 0.10860 301825.392000
22698 22700 1 0.13986 296436.400000
22700 22701 1 0.10860 301825.392000
22702 22703 1 0.10860 301825.392000
22703 22704 1 0.13986 296436.400000
22703 22712 1 0.13986 296436.400000
22704 22705 1 0.18850 35430.112000
22704 22706 1 0.13986 296436.400000
22706 22707 1 0.10860 301825.392000
22706 22708 1 0.13986 296436.400000
22708 22709 1 0.10860 301825.392000
22708 22710 1 0.13986 296436.400000
22710 22711 1 0.10860 301825.392000
22710 22712 1 0.13986 296436.400000
22712 22713 1 0.10860 301825.392000
22714 22715 1 0.10860 301825.392000
22715 22716 1 0.13986 296436.400000
22715 22724 1 0.13986 296436.400000
22716 22717 1 0.18850 35430.112000
22716 22718 1 0.13986 296436.400000
22718 22719 1 0.10860 301825.392000
22718 22720 1 0.13986 296436.400000
22720 22721 1 0.10860 301825.392000
22720 22722 1 0.13986 296436.400000
22722 22723 1 0.10860 301825.392000
22722 22724 1 0.13986 296436.400000
22724 22725 1 0.10860 301825.392000
22726 22727 1 0.10860 301825.392000
22727 22728 1 0.13986 296436.400000
22727 22736 1 0.13986 296436.400000
22728 22729 1 0.18850 35430.112000
22728 22730 1 0.13986 296436.400000
22730 22731 1 0.10860 301825.392000
22730 22732 1 0.13986 296436.400000
22732 22733 1 0.10860 301825.392000
22732 22734 1 0.13986 296436.400000
22734 22735 1 0.10860 301825.392000
22734 22736 1 0.13986 296436.400000
22736 22737 1 0.10860 301825.392000
22738 22739 1 0.10860 301825.392000
22739 22740 1 0.13986 296436.400000
22739 22748 1 0.13986 296436.400000
22740 22741 1 0.18850 35430.112000
22740 22742 1 0.13986 296436.400000
22742 22743 1 0.10860 301825.392000
22742 22744 1 0.13986 296436.400000
22744 22745 1 0.10860 301825.392000
22744 22746 1 0.13986 296436.400000
22746 22747 1 0.10860 301825.392000
22746 22748 1 0.13986 296436.400000
22748 22749 1 0.10860 301825.392000
22750 22751 1 0.10860 301825.392000
22751 22752 1 0.13986 296436.400000
22751 22760 1 0.13986 296436.400000
22752 22753 1 0.18850 35430.112000
22752 22754 1 0.13986 296436.400000
22754 22755 1 0.10860 301825.392000
22754 22756 1 0.13986 296436.400000
22756 22757 1 0.10860 301825.392000
22756 22758 1 0.13986 296436.400000
22758 22759 1 0.10860 301825.392000
22758 22760 1 0.13986 296436.400000
22760 22761 1 0.10860 301825.392000
22762 22763 1 0.10860 301825.392000
22763 22764 1 0.13986 296436.400000
22763 22772 1 0.13986 296436.400000
22764 22765 1 0.18850 35430.112000
22764 22766 1 0.13986 296436.400000
22766 22767 1 0.10860 301825.392000
22766 22768 1 0.13986 296436.400000
22768 22769 1 0.10860 301825.392000
22768 22770 1 0.13986 296436.400000
22770 22771 1 0.10860 301825.392000
22770 22772 1 0.13986 296436.400000
22772 22773 1 0.10860 301825.392000
22774 22775 1 0.10860 301825.392000
22775 22776 1 0.13986 296436.400000
22775 22784 1 0.13986 296436.400000
22776 22777 1 0.18850 35430.112000
22776 22778 1 0.13986 296436.400000
22778 22779 1 0.10860 301825.392000
22778 22780 1 0.13986 296436.400000
22780 22781 1 0.10860 301825.392000
22780 22782 1 0.13986 296436.400000
22782 22783 1 0.10860 301825.392000
22782 22784 1 0.13986 296436.400000
22784 22785 1 0.10860 301825.392000
22786 22787 1 0.10860 301825.392000
22787 22788 1 0.13986 296436.400000
22787 22796 1 0.13986 296436.400000
22788 22789 1 0.18850 35430.112000
22788 22790 1 0.13986 296436.400000
22790 22791 1 0.10860 301825.392000
22790 22792 1 0.13986 296436.400000
22792 22793 1 0.10860 301825.392000
22792 22794 1 0.13986 296436.400000
22794 22795 1 0.10860 301825.392000
22794 22796 1 0.13986 296436.400000
22796 22797 1 0.10860 301825.392000
22798 22799 1 0.10860 301825.392000
22799 22800 1 0.13986 296436.400000
22799 22808 1 0.13986 296436.400000
22800 22801 1 0.18850 35430.112000
22800 22802 1 0.13986 296436.400000
22802 22803 1 0.10860 301825.392000
22802 22804 1 0.13986 296436.400000
22804 22805 1 0.10860 301825.392000
22804 22806 1 0.13986 296436.400000
22806 22807 1 0.10860 301825.392000
22806 22808 1 0.13986 296436.400000
22808 22809 1 0.10860 301825.392000
22810 22811 1 0.10860 301825.392000
22811 22812 1 0.13986 296436.400000
22811 22820 1 0.13986 296436.400000
22812 22813 1 0.18850 35430.112000
22812 22814 1 0.13986 296436.400000
22814 22815 1 0.10860 301825.392000
22814 22816 1 0.13986 296436.400000
22816 22817 1 0.10860 301825.392000
22816 22818 1 0.13986 296436.400000
22818 22819 1 0.10860 301825.392000
22818 22820 1 0.13986 296436.400000
22820 22821 1 0.10860 301825.392000
22822 22823 1 0.10860 301825.392000
22823 22824 1 0.13986 296436.400000
22823 22832 1 0.13986 296436.400000
22824 22825 1 0.18850 35430.112000
22824 22826 1 0.13986 296436.400000
22826 22827 1 0.10860 301825.392000
22826 22828 1 0.13986 296436.400000
22828 22829 1 0.10860 301825.392000
22828 22830 1 0.13986 296436.400000
22830 22831 1 0.10860 301825.392000
22830 22832 1 0.13986 296436.400000
22832 22833 1 0.10860 301825.392000
22834 22835 1 0.10860 301825.392000
22835 22836 1 0.13986 296436.400000
22835 22844 1 0.13986 296436.400000
22836 22837 1 0.18850 35430.112000
22836 22838 1 0.13986 296436.400000
22838 22839 1 0.10860 301825.392000
22838 22840 1 0.13986 296436.400000
22840 22841 1 0.10860 301825.392000
22840 22842 1 0.13986 296436.400000
22842 22843 1 0.10860 301825.392000
22842 22844 1 0.13986 296436.400000
22844 22845 1 0.10860 301825.392000
22846 22847 1 0.10860 301825.392000
22847 22848 1 0.13986 296436.400000
22847 22856 1 0.13986 296436.400000
22848 22849 1 0.18850 35430.112000
22848 22850 1 0.13986 296436.400000
22850 22851 1 0.10860 301825.392000
22850 22852 1 0.13986 296436.400000
22852 22853 1 0.10860 301825.392000
22852 22854 1 0.13986 296436.400000
22854 22855 1 0.10860 301825.392000
22854 22856 1 0.13986 296436.400000
22856 22857 1 0.10860 301825.392000
22858 22859 1 0.10860 301825.392000
22859 22860 1 0.13986 296436.400000
22859 22868 1 0.13986 296436.400000
22860 22861 1 0.18850 35430.112000
22860 22862 1 0.13986 296436.400000
22862 22863 1 0.10860 301825.392000
22862 22864 1 0.13986 296436.400000
22864 22865 1 0.10860 301825.392000
22864 22866 1 0.13986 296436.400000
22866 22867 1 0.10860 301825.392000
22866 22868 1 0.13986 296436.400000
22868 22869 1 0.10860 301825.392000
22870 22871 1 0.10860 301825.392000
22871 22872 1 0.13986 296436.400000
22871 22880 1 0.13986 296436.400000
22872 22873 1 0.18850 35430.112000
22872 22874 1 0.13986 296436.400000
22874 22875 1 0.10860 301825.392000
22874 22876 1 0.13986 296436.400000
22876 22877 1 0.10860 301825.392000
22876 22878 1 0.13986 296436.400000
22878 22879 1 0.10860 301825.392000
22878 22880 1 0.13986 296436.400000
22880 22881 1 0.10860 301825.392000
22882 22883 1 0.10860 301825.392000
22883 22884 1 0.13986 296436.400000
22883 22892 1 0.13986 296436.400000
22884 22885 1 0.18850 35430.112000
22884 22886 1 0.13986 296436.400000
22886 22887 1 0.10860 301825.392000
22886 22888 1 0.13986 296436.400000
22888 22889 1 0.10860 301825.392000
22888 22890 1 0.13986 296436.400000
22890 22891 1 0.10860 301825.392000
22890 22892 1 0.13986 296436.400000
22892 22893 1 0.10860 301825.392000
22894 22895 1 0.10860 301825.392000
22895 22896 1 0.13986 296436.400000
22895 22904 1 0.13986 296436.400000
22896 22897 1 0.18850 35430.112000
22896 22898 1 0.13986 296436.400000
22898 22899 1 0.10860 301825.392000
22898 22900 1 0.13986 296436.400000
22900 22901 1 0.10860 301825.392000
22900 22902 1 0.13986 296436.400000
22902 22903 1 0.10860 301825.392000
22902 22904 1 0.13986 296436.400000
22904 22905 1 0.10860 301825.392000
22906 22907 1 0.10860 301825.392000
22907 22908 1 0.13986 296436.400000
22907 22916 1 0.13986 296436.400000
22908 22909 1 0.18850 35430.112000
22908 22910 1 0.13986 296436.400000
22910 22911 1 0.10860 301825.392000
22910 22912 1 0.13986 296436.400000
22912 22913 1 0.10860 301825.392000
22912 22914 1 0.13986 296436.400000
22914 22915 1 0.10860 301825.392000
22914 22916 1 0.13986 296436.400000
22916 22917 1 0.10860 301825.392000
22918 22919 1 0.10860 301825.392000
22919 22920 1 0.13986 296436.400000
22919 22928 1 0.13986 296436.400000
22920 22921 1 0.18850 35430.112000
22920 22922 1 0.13986 296436.400000
22922 22923 1 0.10860 301825.392000
22922 22924 1 0.13986 296436.400000
22924 22925 1 0.10860 301825.392000
22924 22926 1 0.13986 296436.400000
22926 22927 1 0.10860 301825.392000
22926 22928 1 0.13986 296436.400000
22928 22929 1 0.10860 301825.392000
22930 22931 1 0.10860 301825.392000
22931 22932 1 0.13986 296436.400000
22931 22940 1 0.13986 296436.400000
22932 22933 1 0.18850 35430.112000
22932 22934 1 0.13986 296436.400000
22934 22935 1 0.10860 301825.392000
22934 22936 1 0.13986 296436.400000
22936 22937 1 0.10860 301825.392000
22936 22938 1 0.13986 296436.400000
22938 22939 1 0.10860 301825.392000
22938 22940 1 0.13986 296436.400000
22940 22941 1 0.10860 301825.392000
22942 22943 1 0.10860 301825.392000
22943 22944 1 0.13986 296436.400000
22943 22952 1 0.13986 296436.400000
22944 22945 1 0.18850 35430.112000
22944 22946 1 0.13986 296436.400000
22946 22947 1 0.10860 301825.392000
22946 22948 1 0.13986 296436.400000
22948 22949 1 0.10860 301825.392000
22948 22950 1 0.13986 296436.400000
22950 22951 1 0.10860 301825.392000
22950 22952 1 0.13986 296436.400000
22952 22953 1 0.10860 301825.392000
22954 22955 1 0.10860 301825.392000
22955 22956 1 0.13986 296436.400000
22955 22964 1 0.13986 296436.400000
22956 22957 1 0.18850 35430.112000
22956 22958 1 0.13986 296436.400000
22958 22959 1 0.10860 301825.392000
22958 22960 1 0.13986 296436.400000
22960 22961 1 0.10860 301825.392000
22960 22962 1 0.13986 296436.400000
22962 22963 1 0.10860 301825.392000
22962 22964 1 0.13986 296436.400000
22964 22965 1 0.10860 301825.392000
22966 22967 1 0.10860 301825.392000
22967 22968 1 0.13986 296436.400000
22967 22976 1 0.13986 296436.400000
22968 22969 1 0.18850 35430.112000
22968 22970 1 0.13986 296436.400000
22970 22971 1 0.10860 301825.392000
22970 22972 1 0.13986 296436.400000
22972 22973 1 0.10860 301825.392000
22972 22974 1 0.13986 296436.400000
22974 22975 1 0.10860 301825.392000
22974 22976 1 0.13986 296436.400000
22976 22977 1 0.10860 301825.392000
22978 22979 1 0.10860 301825.392000
22979 22980 1 0.13986 296436.400000
22979 22988 1 0.13986 296436.400000
22980 22981 1 0.18850 35430.112000
22980 22982 1 0.13986 296436.400000
22982 22983 1 0.10860 301825.392000
22982 22984 1 0.13986 296436.400000
22984 22985 1 0.10860 301825.392000
22984 22986 1 0.13986 296436.400000
22986 22987 1 0.10860 301825.392000
22986 22988 1 0.13986 296436.400000
22988 22989 1 0.10860 301825.392000
22990 22991 1 0.10860 301825.392000
22991 22992 1 0.13986 296436.400000
22991 23000 1 0.13986 296436.400000
22992 22993 1 0.18850 35430.112000
22992 22994 1 0.13986 296436.400000
22994 22995 1 0.10860 301825.392000
22994 22996 1 0.13986 296436.400000
22996 22997 1 0.10860 301825.392000
22996 22998 1 0.13986 296436.400000
22998 22999 1 0.10860 301825.392000
22998 23000 1 0.13986 296436.400000
23000 23001 1 0.10860 301825.392000
23002 23003 1 0.10860 301825.392000
23003 23004 1 0.13986 296436.400000
23003 23012 1 0.13986 296436.400000
23004 23005 1 0.18850 35430.112000
23004 23006 1 0.13986 296436.400000
23006 23007 1 0.10860 301825.392000
23006 23008 1 0.13986 296436.400000
23008 23009 1 0.10860 301825.392000
23008 23010 1 0.13986 296436.400000
23010 23011 1 0.10860 301825.392000
23010 23012 1 0.13986 296436.400000
23012 23013 1 0.10860 301825.392000
23014 23015 1 0.10860 301825.392000
23015 23016 1 0.13986 296436.400000
23015 23024 1 0.13986 296436.400000
23016 23017 1 0.18850 35430.112000
23016 23018 1 0.13986 296436.400000
23018 23019 1 0.10860 301825.392000
23018 23020 1 0.13986 296436.400000
23020 23021 1 0.10860 301825.392000
23020 23022 1 0.13986 296436.400000
23022 23023 1 0.10860 301825.392000
23022 23024 1 0.13986 296436.400000
23024 23025 1 0.10860 301825.392000
23026 23027 1 0.10860 301825.392000
23027 23028 1 0.13986 296436.400000
23027 23036 1 0.13986 296436.400000
23028 23029 1 0.18850 35430.112000
23028 23030 1 0.13986 296436.400000
23030 23031 1 0.10860 301825.392000
23030 23032 1 0.13986 296436.400000
23032 23033 1 0.10860 301825.392000
23032 23034 1 0.13986 296436.400000
23034 23035 1 0.10860 301825.392000
23034 23036 1 0.13986 296436.400000
23036 23037 1 0.10860 301825.392000
23038 23039 1 0.10860 301825.392000
23039 23040 1 0.13986 296436.400000
23039 23048 1 0.13986 296436.400000
23040 23041 1 0.18850 35430.112000
23040 23042 1 0.13986 296436.400000
23042 23043 1 0.10860 301825.392000
23042 23044 1 0.13986 296436.400000
23044 23045 1 0.10860 301825.392000
23044 23046 1 0.13986 296436.400000
23046 23047 1 0.10860 301825.392000
23046 23048 1 0.13986 296436.400000
23048 23049 1 0.10860 301825.392000
23050 23051 1 0.10860 301825.392000
23051 23052 1 0.13986 296436.400000
23051 23060 1 0.13986 296436.400000
23052 23053 1 0.18850 35430.112000
23052 23054 1 0.13986 296436.400000
23054 23055 1 0.10860 301825.392000
23054 23056 1 0.13986 296436.400000
23056 23057 1 0.10860 301825.392000
23056 23058 1 0.13986 296436.400000
23058 23059 1 0.10860 301825.392000
23058 23060 1 0.13986 296436.400000
23060 23061 1 0.10860 301825.392000
23062 23063 1 0.10860 301825.392000
23063 23064 1 0.13986 296436.400000
23063 23072 1 0.13986 296436.400000
23064 23065 1 0.18850 35430.112000
23064 23066 1 0.13986 296436.400000
23066 23067 1 0.10860 301825.392000
23066 23068 1 0.13986 296436.400000
23068 23069 1 0.10860 301825.392000
23068 23070 1 0.13986 296436.400000
23070 23071 1 0.10860 301825.392000
23070 23072 1 0.13986 296436.400000
23072 23073 1 0.10860 301825.392000
23074 23075 1 0.10860 301825.392000
23075 23076 1 0.13986 296436.400000
23075 23084 1 0.13986 296436.400000
23076 23077 1 0.18850 35430.112000
23076 23078 1 0.13986 296436.400000
23078 23079 1 0.10860 301825.392000
23078 23080 1 0.13986 296436.400000
23080 23081 1 0.10860 301825.392000
23080 23082 1 0.13986 296436.400000
23082 23083 1 0.10860 301825.392000
23082 23084 1 0.13986 296436.400000
23084 23085 1 0.10860 301825.392000
23086 23087 1 0.10860 301825.392000
23087 23088 1 0.13986 296436.400000
23087 23096 1 0.13986 296436.400000
23088 23089 1 0.18850 35430.112000
23088 23090 1 0.13986 296436.400000
23090 23091 1 0.10860 301825.392000
23090 23092 1 0.13986 296436.400000
23092 23093 1 0.10860 301825.392000
23092 23094 1 0.13986 296436.400000
23094 23095 1 0.10860 301825.392000
23094 23096 1 0.13986 296436.400000
23096 23097 1 0.10860 301825.392000
23098 23099 1 0.10860 301825.392000
23099 23100 1 0.13986 296436.400000
23099 23108 1 0.13986 296436.400000
23100 23101 1 0.18850 35430.112000
23100 23102 1 0.13986 296436.400000
23102 23103 1 0.10860 301825.392000
23102 23104 1 0.13986 296436.400000
23104 23105 1 0.10860 301825.392000
23104 23106 1 0.13986 296436.400000
23106 23107 1 0.10860 301825.392000
23106 23108 1 0.13986 296436.400000
23108 23109 1 0.10860 301825.392000
23110 23111 1 0.10860 301825.392000
23111 23112 1 0.13986 296436.400000
23111 23120 1 0.13986 296436.400000
23112 23113 1 0.18850 35430.112000
23112 23114 1 0.13986 296436.400000
23114 23115 1 0.10860 301825.392000
23114 23116 1 0.13986 296436.400000
23116 23117 1 0.10860 301825.392000
23116 23118 1 0.13986 296436.400000
23118 23119 1 0.10860 301825.392000
23118 23120 1 0.13986 296436.400000
23120 23121 1 0.10860 301825.392000
23122 23123 1 0.10860 301825.392000
23123 23124 1 0.13986 296436.400000
23123 23132 1 0.13986 296436.400000
23124 23125 1 0.18850 35430.112000
23124 23126 1 0.13986 296436.400000
23126 23127 1 0.10860 301825.392000
23126 23128 1 0.13986 296436.400000
23128 23129 1 0.10860 301825.392000
23128 23130 1 0.13986 296436.400000
23130 23131 1 0.10860 301825.392000
23130 23132 1 0.13986 296436.400000
23132 23133 1 0.10860 301825.392000
23134 23135 1 0.10860 301825.392000
23135 23136 1 0.13986 296436.400000
23135 23144 1 0.13986 296436.400000
23136 23137 1 0.18850 35430.112000
23136 23138 1 0.13986 296436.400000
23138 23139 1 0.10860 301825.392000
23138 23140 1 0.13986 296436.400000
23140 23141 1 0.10860 301825.392000
23140 23142 1 0.13986 296436.400000
23142 23143 1 0.10860 301825.392000
23142 23144 1 0.13986 296436.400000
23144 23145 1 0.10860 301825.392000
23146 23147 1 0.10860 301825.392000
23147 23148 1 0.13986 296436.400000
23147 23156 1 0.13986 296436.400000
23148 23149 1 0.18850 35430.112000
23148 23150 1 0.13986 296436.400000
23150 23151 1 0.10860 301825.392000
23150 23152 1 0.13986 296436.400000
23152 23153 1 0.10860 301825.392000
23152 23154 1 0.13986 296436.400000
23154 23155 1 0.10860 301825.392000
23154 23156 1 0.13986 296436.400000
23156 23157 1 0.10860 301825.392000
23158 23159 1 0.10860 301825.392000
23159 23160 1 0.13986 296436.400000
23159 23168 1 0.13986 296436.400000
23160 23161 1 0.18850 35430.112000
23160 23162 1 0.13986 296436.400000
23162 23163 1 0.10860 301825.392000
23162 23164 1 0.13986 296436.400000
23164 23165 1 0.10860 301825.392000
23164 23166 1 0.13986 296436.400000
23166 23167 1 0.10860 301825.392000
23166 23168 1 0.13986 296436.400000
23168 23169 1 0.10860 301825.392000
23170 23171 1 0.10860 301825.392000
23171 23172 1 0.13986 296436.400000
23171 23180 1 0.13986 296436.400000
23172 23173 1 0.18850 35430.112000
23172 23174 1 0.13986 296436.400000
23174 23175 1 0.10860 301825.392000
23174 23176 1 0.13986 296436.400000
23176 23177 1 0.10860 301825.392000
23176 23178 1 0.13986 296436.400000
23178 23179 1 0.10860 301825.392000
23178 23180 1 0.13986 296436.400000
23180 23181 1 0.10860 301825.392000
23182 23183 1 0.10860 301825.392000
23183 23184 1 0.13986 296436.400000
23183 23192 1 0.13986 296436.400000
23184 23185 1 0.18850 35430.112000
23184 23186 1 0.13986 296436.400000
23186 23187 1 0.10860 301825.392000
23186 23188 1 0.13986 296436.400000
23188 23189 1 0.10860 301825.392000
23188 23190 1 0.13986 296436.400000
23190 23191 1 0.10860 301825.392000
23190 23192 1 0.13986 296436.400000
23192 23193 1 0.10860 301825.392000
23194 23195 1 0.10860 301825.392000
23195 23196 1 0.13986 296436.400000
23195 23204 1 0.13986 296436.400000
23196 23197 1 0.18850 35430.112000
23196 23198 1 0.13986 296436.400000
23198 23199 1 0.10860 301825.392000
23198 23200 1 0.13986 296436.400000
23200 23201 1 0.10860 301825.392000
23200 23202 1 0.13986 296436.400000
23202 23203 1 0.10860 301825.392000
23202 23204 1 0.13986 296436.400000
23204 23205 1 0.10860 301825.392000
23206 23207 1 0.10860 301825.392000
23207 23208 1 0.13986 296436.400000
23207 23216 1 0.13986 296436.400000
23208 23209 1 0.18850 35430.112000
23208 23210 1 0.13986 296436.400000
23210 23211 1 0.10860 301825.392000
23210 23212 1 0.13986 296436.400000
23212 23213 1 0.10860 301825.392000
23212 23214 1 0.13986 296436.400000
23214 23215 1 0.10860 301825.392000
23214 23216 1 0.13986 296436.400000
23216 23217 1 0.10860 301825.392000
23218 23219 1 0.10860 301825.392000
23219 23220 1 0.13986 296436.400000
23219 23228 1 0.13986 296436.400000
23220 23221 1 0.18850 35430.112000
23220 23222 1 0.13986 296436.400000
23222 23223 1 0.10860 301825.392000
23222 23224 1 0.13986 296436.400000
23224 23225 1 0.10860 301825.392000
23224 23226 1 0.13986 296436.400000
23226 23227 1 0.10860 301825.392000
23226 23228 1 0.13986 296436.400000
23228 23229 1 0.10860 301825.392000
23230 23231 1 0.10860 301825.392000
23231 23232 1 0.13986 296436.400000
23231 23240 1 0.13986 296436.400000
23232 23233 1 0.18850 35430.112000
23232 23234 1 0.13986 296436.400000
23234 23235 1 0.10860 301825.392000
23234 23236 1 0.13986 296436.400000
23236 23237 1 0.10860 301825.392000
23236 23238 1 0.13986 296436.400000
23238 23239 1 0.10860 301825.392000
23238 23240 1 0.13986 296436.400000
23240 23241 1 0.10860 301825.392000
23242 23243 1 0.10860 301825.392000
23243 23244 1 0.13986 296436.400000
23243 23252 1 0.13986 296436.400000
23244 23245 1 0.18850 35430.112000
23244 23246 1 0.13986 296436.400000
23246 23247 1 0.10860 301825.392000
23246 23248 1 0.13986 296436.400000
23248 23249 1 0.10860 301825.392000
23248 23250 1 0.13986 296436.400000
23250 23251 1 0.10860 301825.392000
23250 23252 1 0.13986 296436.400000
23252 23253 1 0.10860 301825.392000
23254 23255 1 0.10860 301825.392000
23255 23256 1 0.13986 296436.400000
23255 23264 1 0.13986 296436.400000
23256 23257 1 0.18850 35430.112000
23256 23258 1 0.13986 296436.400000
23258 23259 1 0.10860 301825.392000
23258 23260 1 0.13986 296436.400000
23260 23261 1 0.10860 301825.392000
23260 23262 1 0.13986 296436.400000
23262 23263 1 0.10860 301825.392000
23262 23264 1 0.13986 296436.400000
23264 23265 1 0.10860 301825.392000
23266 23267 1 0.10860 301825.392000
23267 23268 1 0.13986 296436.400000
23267 23276 1 0.13986 296436.400000
23268 23269 1 0.18850 35430.112000
23268 23270 1 0.13986 296436.400000
23270 23271 1 0.10860 301825.392000
23270 23272 1 0.13986 296436.400000
23272 23273 1 0.10860 301825.392000
23272 23274 1 0.13986 296436.400000
23274 23275 1 0.10860 301825.392000
23274 23276 1 0.13986 296436.400000
23276 23277 1 0.10860 301825.392000
23278 23279 1 0.10860 301825.392000
23279 23280 1 0.13986 296436.400000
23279 23288 1 0.13986 296436.400000
23280 23281 1 0.18850 35430.112000
23280 23282 1 0.13986 296436.400000
23282 23283 1 0.10860 301825.392000
23282 23284 1 0.13986 296436.400000
23284 23285 1 0.10860 301825.392000
23284 23286 1 0.13986 296436.400000
23286 23287 1 0.10860 301825.392000
23286 23288 1 0.13986 296436.400000
23288 23289 1 0.10860 301825.392000
23290 23291 1 0.10860 301825.392000
23291 23292 1 0.13986 296436.400000
23291 23300 1 0.13986 296436.400000
23292 23293 1 0.18850 35430.112000
23292 23294 1 0.13986 296436.400000
23294 23295 1 0.10860 301825.392000
23294 23296 1 0.13986 296436.400000
23296 23297 1 0.10860 301825.392000
23296 23298 1 0.13986 296436.400000
23298 23299 1 0.10860 301825.392000
23298 23300 1 0.13986 296436.400000
23300 23301 1 0.10860 301825.392000
23302 23303 1 0.10860 301825.392000
23303 23304 1 0.13986 296436.400000
23303 23312 1 0.13986 296436.400000
23304 23305 1 0.18850 35430.112000
23304 23306 1 0.13986 296436.400000
23306 23307 1 0.10860 301825.392000
23306 23308 1 0.13986 296436.400000
23308 23309 1 0.10860 301825.392000
23308 23310 1 0.13986 296436.400000
23310 23311 1 0.10860 301825.392000
23310 23312 1 0.13986 296436.400000
23312 23313 1 0.10860 301825.392000
23314 23315 1 0.10860 301825.392000
23315 23316 1 0.13986 296436.400000
23315 23324 1 0.13986 296436.400000
23316 23317 1 0.18850 35430.112000
23316 23318 1 0.13986 296436.400000
23318 23319 1 0.10860 301825.392000
23318 23320 1 0.13986 296436.400000
23320 23321 1 0.10860 301825.392000
23320 23322 1 0.13986 296436.400000
23322 23323 1 0.10860 301825.392000
23322 23324 1 0.13986 296436.400000
23324 23325 1 0.10860 301825.392000
23326 23327 1 0.10860 301825.392000
23327 23328 1 0.13986 296436.400000
23327 23336 1 0.13986 296436.400000
23328 23329 1 0.18850 35430.112000
23328 23330 1 0.13986 296436.400000
23330 23331 1 0.10860 301825.392000
23330 23332 1 0.13986 296436.400000
23332 23333 1 0.10860 301825.392000
23332 23334 1 0.13986 296436.400000
23334 23335 1 0.10860 301825.392000
23334 23336 1 0.13986 296436.400000
23336 23337 1 0.10860 301825.392000
23338 23339 1 0.10860 301825.392000
23339 23340 1 0.13986 296436.400000
23339 23348 1 0.13986 296436.400000
23340 23341 1 0.18850 35430.112000
23340 23342 1 0.13986 296436.400000
23342 23343 1 0.10860 301825.392000
23342 23344 1 0.13986 296436.400000
23344 23345 1 0.10860 301825.392000
23344 23346 1 0.13986 296436.400000
23346 23347 1 0.10860 301825.392000
23346 23348 1 0.13986 296436.400000
23348 23349 1 0.10860 301825.392000
23350 23351 1 0.10860 301825.392000
23351 23352 1 0.13986 296436.400000
23351 23360 1 0.13986 296436.400000
23352 23353 1 0.18850 35430.112000
23352 23354 1 0.13986 296436.400000
23354 23355 1 0.10860 301825.392000
23354 23356 1 0.13986 296436.400000
23356 23357 1 0.10860 301825.392000
23356 23358 1 0.13986 296436.400000
23358 23359 1 0.10860 301825.392000
23358 23360 1 0.13986 296436.400000
23360 23361 1 0.10860 301825.392000
23362 23363 1 0.10860 301825.392000
23363 23364 1 0.13986 296436.400000
23363 23372 1 0.13986 296436.400000
23364 23365 1 0.18850 35430.112000
23364 23366 1 0.13986 296436.400000
23366 23367 1 0.10860 301825.392000
23366 23368 1 0.13986 296436.400000
23368 23369 1 0.10860 301825.392000
23368 23370 1 0.13986 296436.400000
23370 23371 1 0.10860 301825.392000
23370 23372 1 0.13986 296436.400000
23372 23373 1 0.10860 301825.392000
23374 23375 1 0.10860 301825.392000
23375 23376 1 0.13986 296436.400000
23375 23384 1 0.13986 296436.400000
23376 23377 1 0.18850 35430.112000
23376 23378 1 0.13986 296436.400000
23378 23379 1 0.10860 301825.392000
23378 23380 1 0.13986 296436.400000
23380 23381 1 0.10860 301825.392000
23380 23382 1 0.13986 296436.400000
23382 23383 1 0.10860 301825.392000
23382 23384 1 0.13986 296436.400000
23384 23385 1 0.10860 301825.392000
23386 23387 1 0.10860 301825.392000
23387 23388 1 0.13986 296436.400000
23387 23396 1 0.13986 296436.400000
23388 23389 1 0.18850 35430.112000
23388 23390 1 0.13986 296436.400000
23390 23391 1 0.10860 301825.392000
23390 23392 1 0.13986 296436.400000
23392 23393 1 0.10860 301825.392000
23392 23394 1 0.13986 296436.400000
23394 23395 1 0.10860 301825.392000
23394 23396 1 0.13986 296436.400000
23396 23397 1 0.10860 301825.392000
23398 23399 1 0.10860 301825.392000
23399 23400 1 0.13986 296436.400000
23399 23408 1 0.13986 296436.400000
23400 23401 1 0.18850 35430.112000
23400 23402 1 0.13986 296436.400000
23402 23403 1 0.10860 301825.392000
23402 23404 1 0.13986 296436.400000
23404 23405 1 0.10860 301825.392000
23404 23406 1 0.13986 296436.400000
23406 23407 1 0.10860 301825.392000
23406 23408 1 0.13986 296436.400000
23408 23409 1 0.10860 301825.392000
23410 23411 1 0.10860 301825.392000
23411 23412 1 0.13986 296436.400000
23411 23420 1 0.13986 296436.400000
23412 23413 1 0.18850 35430.112000
23412 23414 1 0.13986 296436.400000
23414 23415 1 0.10860 301825.392000
23414 23416 1 0.13986 296436.400000
23416 23417 1 0.10860 301825.392000
23416 23418 1 0.13986 296436.400000
23418 23419 1 0.10860 301825.392000
23418 23420 1 0.13986 296436.400000
23420 23421 1 0.10860 301825.392000
23422 23423 1 0.10860 301825.392000
23423 23424 1 0.13986 296436.400000
23423 23432 1 0.13986 296436.400000
23424 23425 1 0.18850 35430.112000
23424 23426 1 0.13986 296436.400000
23426 23427 1 0.10860 301825.392000
23426 23428 1 0.13986 296436.400000
23428 23429 1 0.10860 301825.392000
23428 23430 1 0.13986 296436.400000
23430 23431 1 0.10860 301825.392000
23430 23432 1 0.13986 296436.400000
23432 23433 1 0.10860 301825.392000
23434 23435 1 0.10860 301825.392000
23435 23436 1 0.13986 296436.400000
23435 23444 1 0.13986 296436.400000
23436 23437 1 0.18850 35430.112000
23436 23438 1 0.13986 296436.400000
23438 23439 1 0.10860 301825.392000
23438 23440 1 0.13986 296436.400000
23440 23441 1 0.10860 301825.392000
23440 23442 1 0.13986 296436.400000
23442 23443 1 0.10860 301825.392000
23442 23444 1 0.13986 296436.400000
23444 23445 1 0.10860 301825.392000
23446 23447 1 0.10860 301825.392000
23447 23448 1 0.13986 296436.400000
23447 23456 1 0.13986 296436.400000
23448 23449 1 0.18850 35430.112000
23448 23450 1 0.13986 296436.400000
23450 23451 1 0.10860 301825.392000
23450 23452 1 0.13986 296436.400000
23452 23453 1 0.10860 301825.392000
23452 23454 1 0.13986 296436.400000
23454 23455 1 0.10860 301825.392000
23454 23456 1 0.13986 296436.400000
23456 23457 1 0.10860 301825.392000
23458 23459 1 0.10860 301825.392000
23459 23460 1 0.13986 296436.400000
23459 23468 1 0.13986 296436.400000
23460 23461 1 0.18850 35430.112000
23460 23462 1 0.13986 296436.400000
23462 23463 1 0.10860 301825.392000
23462 23464 1 0.13986 296436.400000
23464 23465 1 0.10860 301825.392000
23464 23466 1 0.13986 296436.400000
23466 23467 1 0.10860 301825.392000
23466 23468 1 0.13986 296436.400000
23468 23469 1 0.10860 301825.392000
23470 23471 1 0.10860 301825.392000
23471 23472 1 0.13986 296436.400000
23471 23480 1 0.13986 296436.400000
23472 23473 1 0.18850 35430.112000
23472 23474 1 0.13986 296436.400000
23474 23475 1 0.10860 301825.392000
23474 23476 1 0.13986 296436.400000
23476 23477 1 0.10860 301825.392000
23476 23478 1 0.13986 296436.400000
23478 23479 1 0.10860 301825.392000
23478 23480 1 0.13986 296436.400000
23480 23481 1 0.10860 301825.392000
23482 23483 1 0.10860 301825.392000
23483 23484 1 0.13986 296436.400000
23483 23492 1 0.13986 296436.400000
23484 23485 1 0.18850 35430.112000
23484 23486 1 0.13986 296436.400000
23486 23487 1 0.10860 301825.392000
23486 23488 1 0.13986 296436.400000
23488 23489 1 0.10860 301825.392000
23488 23490 1 0.13986 296436.400000
23490 23491 1 0.10860 301825.392000
23490 23492 1 0.13986 296436.400000
23492 23493 1 0.10860 301825.392000
23494 23495 1 0.10860 301825.392000
23495 23496 1 0.13986 296436.400000
23495 23504 1 0.13986 296436.400000
23496 23497 1 0.18850 35430.112000
23496 23498 1 0.13986 296436.400000
23498 23499 1 0.10860 301825.392000
23498 23500 1 0.13986 296436.400000
23500 23501 1 0.10860 301825.392000
23500 23502 1 0.13986 296436.400000
23502 23503 1 0.10860 301825.392000
23502 23504 1 0.13986 296436.400000
23504 23505 1 0.10860 301825.392000
23506 23507 1 0.10860 301825.392000
23507 23508 1 0.13986 296436.400000
23507 23516 1 0.13986 296436.400000
23508 23509 1 0.18850 35430.112000
23508 23510 1 0.13986 296436.400000
23510 23511 1 0.10860 301825.392000
23510 23512 1 0.13986 296436.400000
23512 23513 1 0.10860 301825.392000
23512 23514 1 0.13986 296436.400000
23514 23515 1 0.10860 301825.392000
23514 23516 1 0.13986 296436.400000
23516 23517 1 0.10860 301825.392000
23518 23519 1 0.10860 301825.392000
23519 23520 1 0.13986 296436.400000
23519 23528 1 0.13986 296436.400000
23520 23521 1 0.18850 35430.112000
23520 23522 1 0.13986 296436.400000
23522 23523 1 0.10860 301825.392000
23522 23524 1 0.13986 296436.400000
23524 23525 1 0.10860 301825.392000
23524 23526 1 0.13986 296436.400000
23526 23527 1 0.10860 301825.392000
23526 23528 1 0.13986 296436.400000
23528 23529 1 0.10860 301825.392000
23530 23531 1 0.10860 301825.392000
23531 23532 1 0.13986 296436.400000
23531 23540 1 0.13986 296436.400000
23532 23533 1 0.18850 35430.112000
23532 23534 1 0.13986 296436.400000
23534 23535 1 0.10860 301825.392000
23534 23536 1 0.13986 296436.400000
23536 23537 1 0.10860 301825.392000
23536 23538 1 0.13986 296436.400000
23538 23539 1 0.10860 301825.392000
23538 23540 1 0.13986 296436.400000
23540 23541 1 0.10860 301825.392000
23542 23543 1 0.10860 301825.392000
23543 23544 1 0.13986 296436.400000
23543 23552 1 0.13986 296436.400000
23544 23545 1 0.18850 35430.112000
23544 23546 1 0.13986 296436.400000
23546 23547 1 0.10860 301825.392000
23546 23548 1 0.13986 296436.400000
23548 23549 1 0.10860 301825.392000
23548 23550 1 0.13986 296436.400000
23550 23551 1 0.10860 301825.392000
23550 23552 1 0.13986 296436.400000
23552 23553 1 0.10860 301825.392000
23554 23555 1 0.10860 301825.392000
23555 23556 1 0.13986 296436.400000
23555 23564 1 0.13986 296436.400000
23556 23557 1 0.18850 35430.112000
23556 23558 1 0.13986 296436.400000
23558 23559 1 0.10860 301825.392000
23558 23560 1 0.13986 296436.400000
23560 23561 1 0.10860 301825.392000
23560 23562 1 0.13986 296436.400000
23562 23563 1 0.10860 301825.392000
23562 23564 1 0.13986 296436.400000
23564 23565 1 0.10860 301825.392000
23566 23567 1 0.10860 301825.392000
23567 23568 1 0.13986 296436.400000
23567 23576 1 0.13986 296436.400000
23568 23569 1 0.18850 35430.112000
23568 23570 1 0.13986 296436.400000
23570 23571 1 0.10860 301825.392000
23570 23572 1 0.13986 296436.400000
23572 23573 1 0.10860 301825.392000
23572 23574 1 0.13986 296436.400000
23574 23575 1 0.10860 301825.392000
23574 23576 1 0.13986 296436.400000
23576 23577 1 0.10860 301825.392000
23578 23579 1 0.10860 301825.392000
23579 23580 1 0.13986 296436.400000
23579 23588 1 0.13986 296436.400000
23580 23581 1 0.18850 35430.112000
23580 23582 1 0.13986 296436.400000
23582 23583 1 0.10860 301825.392000
23582 23584 1 0.13986 296436.400000
23584 23585 1 0.10860 301825.392000
23584 23586 1 0.13986 296436.400000
23586 23587 1 0.10860 301825.392000
23586 23588 1 0.13986 296436.400000
23588 23589 1 0.10860 301825.392000
23590 23591 1 0.10860 301825.392000
23591 23592 1 0.13986 296436.400000
23591 23600 1 0.13986 296436.400000
23592 23593 1 0.18850 35430.112000
23592 23594 1 0.13986 296436.400000
23594 23595 1 0.10860 301825.392000
23594 23596 1 0.13986 296436.400000
23596 23597 1 0.10860 301825.392000
23596 23598 1 0.13986 296436.400000
23598 23599 1 0.10860 301825.392000
23598 23600 1 0.13986 296436.400000
23600 23601 1 0.10860 301825.392000
23602 23603 1 0.16500 119244.000000
23603 23604 1 0.09450 207108.000000
23605 23606 1 0.16500 119244.000000
23606 23607 1 0.09450 207108.000000
23608 23609 1 0.16500 119244.000000
23609 23610 1 0.09450 207108.000000
23611 23612 1 0.16500 119244.000000
23612 23613 1 0.09450 207108.000000
23614 23615 1 0.16500 119244.000000
23615 23616 1 0.09450 207108.000000
23617 23618 1 0.16500 119244.000000
23618 23619 1 0.09450 207108.000000
23620 23621 1 0.16500 119244.000000
23621 23622 1 0.09450 207108.000000
23623 23624 1 0.16500 119244.000000
23624 23625 1 0.09450 207108.000000
23626 23627 1 0.16500 119244.000000
23627 23628 1 0.09450 207108.000000
23629 23630 1 0.16500 119244.000000
23630 23631 1 0.09450 207108.000000
23632 23633 1 0.16500 119244.000000
23633 23634 1 0.09450 207108.000000
23635 23636 1 0.16500 119244.000000
23636 23637 1 0.09450 207108.000000
23638 23639 1 0.16500 119244.000000
23639 23640 1 0.09450 207108.000000
23641 23642 1 0.16500 119244.000000
23642 23643 1 0.09450 207108.000000
23644 23645 1 0.16500 119244.000000
23645 23646 1 0.09450 207108.000000
23647 23648 1 0.16500 119244.000000
23648 23649 1 0.09450 207108.000000
23650 23651 1 0.16500 119244.000000
23651 23652 1 0.09450 207108.000000
23653 23654 1 0.16500 119244.000000
23654 23655 1 0.09450 207108.000000
23656 23657 1 0.16500 119244.000000
23657 23658 1 0.09450 207108.000000
23659 23660 1 0.16500 119244.000000
23660 23661 1 0.09450 207108.000000
23662 23663 1 0.16500 119244.000000
23663 23664 1 0.09450 207108.000000
23665 23666 1 0.16500 119244.000000
23666 23667 1 0.09450 207108.000000
23668 23669 1 0.16500 119244.000000
23669 23670 1 0.09450 207108.000000
23671 23672 1 0.16500 119244.000000
23672 23673 1 0.09450 207108.000000
23674 23675 1 0.16500 119244.000000
23675 23676 1 0.09450 207108.000000
23677 23678 1 0.16500 119244.000000
23678 23679 1 0.09450 207108.000000
23680 23681 1 0.16500 119244.000000
23681 23682 1 0.09450 207108.000000
23683 23684 1 0.16500 119244.000000
23684 23685 1 0.09450 207108.000000
23686 23687 1 0.16500 119244.000000
23687 23688 1 0.09450 207108.000000
23689 23690 1 0.16500 119244.000000
23690 23691 1 0.09450 207108.000000
23692 23693 1 0.16500 119244.000000
23693 23694 1 0.09450 207108.000000
23695 23696 1 0.16500 119244.000000
23696 23697 1 0.09450 207108.000000
23698 23699 1 0.16500 119244.000000
23699 23700 1 0.09450 207108.000000
23701 23702 1 0.16500 119244.000000
23702 23703 1 0.09450 207108.000000
23704 23705 1 0.16500 119244.000000
23705 23706 1 0.09450 207108.000000
23707 23708 1 0.16500 119244.000000
23708 23709 1 0.09450 207108.000000
23710 23711 1 0.16500 119244.000000
23711 23712 1 0.09450 207108.000000
23713 23714 1 0.16500 119244.000000
23714 23715 1 0.09450 207108.000000
23716 23717 1 0.16500 119244.000000
23717 23718 1 0.09450 207108.000000
23719 23720 1 0.16500 119244.000000
23720 23721 1 0.09450 207108.000000
23722 23723 1 0.16500 119244.000000
23723 23724 1 0.09450 207108.000000
23725 23726 1 0.16500 119244.000000
23726 23727 1 0.09450 207108.000000
23728 23729 1 0.16500 119244.000000
23729 23730 1 0.09450 207108.000000
23731 23732 1 0.16500 119244.000000
23732 23733 1 0.09450 207108.000000
23734 23735 1 0.16500 119244.000000
23735 23736 1 0.09450 207108.000000
23737 23738 1 0.16500 119244.000000
23738 23739 1 0.09450 207108.000000
23740 23741 1 0.16500 119244.000000
23741 23742 1 0.09450 207108.000000
23743 23744 1 0.16500 119244.000000
23744 23745 1 0.09450 207108.000000
23746 23747 1 0.16500 119244.000000
23747 23748 1 0.09450 207108.000000
23749 23750 1 0.16500 119244.000000
23750 23751 1 0.09450 207108.000000
23752 23753 1 0.16500 119244.000000
23753 23754 1 0.09450 207108.000000
23755 23756 1 0.16500 119244.000000
23756 23757 1 0.09450 207108.000000
23758 23759 1 0.16500 119244.000000
23759 23760 1 0.09450 207108.000000
23761 23762 1 0.16500 119244.000000
23762 23763 1 0.09450 207108.000000
23764 23765 1 0.16500 119244.000000
23765 23766 1 0.09450 207108.000000
23767 23768 1 0.16500 119244.000000
23768 23769 1 0.09450 207108.000000
23770 23771 1 0.16500 119244.000000
23771 23772 1 0.09450 207108.000000
23773 23774 1 0.16500 119244.000000
23774 23775 1 0.09450 207108.000000
23776 23777 1 0.16500 119244.000000
23777 23778 1 0.09450 207108.000000
23779 23780 1 0.16500 119244.000000
23780 23781 1 0.09450 207108.000000
23782 23783 1 0.16500 119244.000000
23783 23784 1 0.09450 207108.000000
23785 23786 1 0.16500 119244.000000
23786 23787 1 0.09450 207108.000000
23788 23789 1 0.16500 119244.000000
23789 23790 1 0.09450 207108.000000
23791 23792 1 0.16500 119244.000000
23792 23793 1 0.09450 207108.000000
23794 23795 1 0.16500 119244.000000
23795 23796 1 0.09450 207108.000000
23797 23798 1 0.16500 119244.000000
23798 23799 1 0.09450 207108.000000
23800 23801 1 0.16500 119244.000000
23801 23802 1 0.09450 207108.000000
23803 23804 1 0.16500 119244.000000
23804 23805 1 0.09450 207108.000000
23806 23807 1 0.16500 119244.000000
23807 23808 1 0.09450 207108.000000
23809 23810 1 0.16500 119244.000000
23810 23811 1 0.09450 207108.000000
23812 23813 1 0.16500 119244.000000
23813 23814 1 0.09450 207108.000000
23815 23816 1 0.16500 119244.000000
23816 23817 1 0.09450 207108.000000
23818 23819 1 0.16500 119244.000000
23819 23820 1 0.09450 207108.000000
23821 23822 1 0.16500 119244.000000
23822 23823 1 0.09450 207108.000000
23824 23825 1 0.16500 119244.000000
23825 23826 1 0.09450 207108.000000
23827 23828 1 0.16500 119244.000000
23828 23829 1 0.09450 207108.000000
23830 23831 1 0.16500 119244.000000
23831 23832 1 0.09450 207108.000000
23833 23834 1 0.16500 119244.000000
23834 23835 1 0.09450 207108.000000
23836 23837 1 0.16500 119244.000000
23837 23838 1 0.09450 207108.000000
23839 23840 1 0.16500 119244.000000
23840 23841 1 0.09450 207108.000000
23842 23843 1 0.16500 119244.000000
23843 23844 1 0.09450 207108.000000
23845 23846 1 0.16500 119244.000000
23846 23847 1 0.09450 207108.000000
23848 23849 1 0.16500 119244.000000
23849 23850 1 0.09450 207108.000000
23851 23852 1 0.16500 119244.000000
23852 23853 1 0.09450 207108.000000
23854 23855 1 0.16500 119244.000000
23855 23856 1 0.09450 207108.000000
23857 23858 1 0.16500 119244.000000
23858 23859 1 0.09450 207108.000000
23860 23861 1 0.16500 119244.000000
23861 23862 1 0.09450 207108.000000
23863 23864 1 0.16500 119244.000000
23864 23865 1 0.09450 207108.000000
23866 23867 1 0.16500 119244.000000
23867 23868 1 0.09450 207108.000000
23869 23870 1 0.16500 119244.000000
23870 23871 1 0.09450 207108.000000
23872 23873 1 0.16500 119244.000000
23873 23874 1 0.09450 207108.000000
23875 23876 1 0.16500 119244.000000
23876 23877 1 0.09450 207108.000000
23878 23879 1 0.16500 119244.000000
23879 23880 1 0.09450 207108.000000
23881 23882 1 0.16500 119244.000000
23882 23883 1 0.09450 207108.000000
23884 23885 1 0.16500 119244.000000
23885 23886 1 0.09450 207108.000000
23887 23888 1 0.16500 119244.000000
23888 23889 1 0.09450 207108.000000
23890 23891 1 0.16500 119244.000000
23891 23892 1 0.09450 207108.000000
23893 23894 1 0.16500 119244.000000
23894 23895 1 0.09450 207108.000000
23896 23897 1 0.16500 119244.000000
23897 23898 1 0.09450 207108.000000
23899 23900 1 0.16500 119244.000000
23900 23901 1 0.09450 207108.000000
23902 23903 1 0.16500 119244.000000
23903 23904 1 0.09450 207108.000000
23905 23906 1 0.16500 119244.000000
23906 23907 1 0.09450 207108.000000
23908 23909 1 0.16500 119244.000000
23909 23910 1 0.09450 207108.000000
23911 23912 1 0.16500 119244.000000
23912 23913 1 0.09450 207108.000000
23914 23915 1 0.16500 119244.000000
23915 23916 1 0.09450 207108.000000
23917 23918 1 0.16500 119244.000000
23918 23919 1 0.09450 207108.000000
23920 23921 1 0.16500 119244.000000
23921 23922 1 0.09450 207108.000000
23923 23924 1 0.16500 119244.000000
23924 23925 1 0.09450 207108.000000
23926 23927 1 0.16500 119244.000000
23927 23928 1 0.09450 207108.000000
23929 23930 1 0.16500 119244.000000
23930 23931 1 0.09450 207108.000000
23932 23933 1 0.16500 119244.000000
23933 23934 1 0.09450 207108.000000
23935 23936 1 0.16500 119244.000000
23936 23937 1 0.09450 207108.000000
23938 23939 1 0.16500 119244.000000
23939 23940 1 0.09450 207108.000000
23941 23942 1 0.16500 119244.000000
23942 23943 1 0.09450 207108.000000
23944 23945 1 0.16500 119244.000000
23945 23946 1 0.09450 207108.000000
23947 23948 1 0.16500 119244.000000
23948 23949 1 0.09450 207108.000000
23950 23951 1 0.16500 119244.000000
23951 23952 1 0.09450 207108.000000
23953 23954 1 0.16500 119244.000000
23954 23955 1 0.09450 207108.000000
23956 23957 1 0.16500 119244.000000
23957 23958 1 0.09450 207108.000000
23959 23960 1 0.16500 119244.000000
23960 23961 1 0.09450 207108.000000
23962 23963 1 0.16500 119244.000000
23963 23964 1 0.09450 207108.000000
23965 23966 1 0.16500 119244.000000
23966 23967 1 0.09450 207108.000000
23968 23969 1 0.16500 119244.000000
23969 23970 1 0.09450 207108.000000
23971 23972 1 0.16500 119244.000000
23972 23973 1 0.09450 207108.000000
23974 23975 1 0.16500 119244.000000
23975 23976 1 0.09450 207108.000000
23977 23978 1 0.16500 119244.000000
23978 23979 1 0.09450 207108.000000
23980 23981 1 0.16500 119244.000000
23981 23982 1 0.09450 207108.000000
23983 23984 1 0.16500 119244.000000
23984 23985 1 0.09450 207108.000000
23986 23987 1 0.16500 119244.000000
23987 23988 1 0.09450 207108.000000
23989 23990 1 0.16500 119244.000000
23990 23991 1 0.09450 207108.000000
23992 23993 1 0.16500 119244.000000
23993 23994 1 0.09450 207108.000000
23995 23996 1 0.16500 119244.000000
23996 23997 1 0.09450 207108.000000
23998 23999 1 0.16500 119244.000000
23999 24000 1 0.09450 207108.000000
24001 24002 1 0.16500 119244.000000
24002 24003 1 0.09450 207108.000000
24004 24005 1 0.16500 119244.000000
24005 24006 1 0.09450 207108.000000
24007 24008 1 0.16500 119244.000000
24008 24009 1 0.09450 207108.000000
24010 24011 1 0.16500 119244.000000
24011 24012 1 0.09450 207108.000000
24013 24014 1 0.16500 119244.000000
24014 24015 1 0.09450 207108.000000
24016 24017 1 0.16500 119244.000000
24017 24018 1 0.09450 207108.000000
24019 24020 1 0.16500 119244.000000
24020 24021 1 0.09450 207108.000000
24022 24023 1 0.16500 119244.000000
24023 24024 1 0.09450 207108.000000
24025 24026 1 0.16500 119244.000000
24026 24027 1 0.09450 207108.000000
24028 24029 1 0.16500 119244.000000
24029 24030 1 0.09450 207108.000000
24031 24032 1 0.16500 119244.000000
24032 24033 1 0.09450 207108.000000
24034 24035 1 0.16500 119244.000000
24035 24036 1 0.09450 207108.000000
24037 24038 1 0.16500 119244.000000
24038 24039 1 0.09450 207108.000000
24040 24041 1 0.16500 119244.000000
24041 24042 1 0.09450 207108.000000
24043 24044 1 0.16500 119244.000000
24044 24045 1 0.09450 207108.000000
24046 24047 1 0.16500 119244.000000
24047 24048 1 0.09450 207108.000000
24049 24050 1 0.16500 119244.000000
24050 24051 1 0.09450 207108.000000
24052 24053 1 0.16500 119244.000000
24053 24054 1 0.09450 207108.000000
24055 24056 1 0.16500 119244.000000
24056 24057 1 0.09450 207108.000000
24058 24059 1 0.16500 119244.000000
24059 24060 1 0.09450 207108.000000
24061 24062 1 0.16500 119244.000000
24062 24063 1 0.09450 207108.000000
24064 24065 1 0.16500 119244.000000
24065 24066 1 0.09450 207108.000000
24067 24068 1 0.16500 119244.000000
24068 24069 1 0.09450 207108.000000
24070 24071 1 0.16500 119244.000000
24071 24072 1 0.09450 207108.000000
24073 24074 1 0.16500 119244.000000
24074 24075 1 0.09450 207108.000000
24076 24077 1 0.16500 119244.000000
24077 24078 1 0.09450 207108.000000
24079 24080 1 0.16500 119244.000000
24080 24081 1 0.09450 207108.000000
24082 24083 1 0.16500 119244.000000
24083 24084 1 0.09450 207108.000000
24085 24086 1 0.16500 119244.000000
24086 24087 1 0.09450 207108.000000
24088 24089 1 0.16500 119244.000000
24089 24090 1 0.09450 207108.000000
24091 24092 1 0.16500 119244.000000
24092 24093 1 0.09450 207108.000000
24094 24095 1 0.16500 119244.000000
24095 24096 1 0.09450 207108.000000
24097 24098 1 0.16500 119244.000000
24098 24099 1 0.09450 207108.000000
24100 24101 1 0.16500 119244.000000
24101 24102 1 0.09450 207108.000000
24103 24104 1 0.16500 119244.000000
24104 24105 1 0.09450 207108.000000
24106 24107 1 0.16500 119244.000000
24107 24108 1 0.09450 207108.000000
24109 24110 1 0.16500 119244.000000
24110 24111 1 0.09450 207108.000000
24112 24113 1 0.16500 119244.000000
24113 24114 1 0.09450 207108.000000
24115 24116 1 0.16500 119244.000000
24116 24117 1 0.09450 207108.000000
24118 24119 1 0.16500 119244.000000
24119 24120 1 0.09450 207108.000000
24121 24122 1 0.16500 119244.000000
24122 24123 1 0.09450 207108.000000
24124 24125 1 0.16500 119244.000000
24125 24126 1 0.09450 207108.000000
24127 24128 1 0.16500 119244.000000
24128 24129 1 0.09450 207108.000000
24130 24131 1 0.16500 119244.000000
24131 24132 1 0.09450 207108.000000
24133 24134 1 0.16500 119244.000000
24134 24135 1 0.09450 207108.000000
24136 24137 1 0.16500 119244.000000
24137 24138 1 0.09450 207108.000000
24139 24140 1 0.16500 119244.000000
24140 24141 1 0.09450 207108.000000
24142 24143 1 0.16500 119244.000000
24143 24144 1 0.09450 207108.000000
24145 24146 1 0.16500 119244.000000
24146 24147 1 0.09450 207108.000000
24148 24149 1 0.16500 119244.000000
24149 24150 1 0.09450 207108.000000
24151 24152 1 0.16500 119244.000000
24152 24153 1 0.09450 207108.000000
24154 24155 1 0.16500 119244.000000
24155 24156 1 0.09450 207108.000000
24157 24158 1 0.16500 119244.000000
24158 24159 1 0.09450 207108.000000
24160 24161 1 0.16500 119244.000000
24161 24162 1 0.09450 207108.000000
24163 24164 1 0.16500 119244.000000
24164 24165 1 0.09450 207108.000000
24166 24167 1 0.16500 119244.000000
24167 24168 1 0.09450 207108.000000
24169 24170 1 0.16500 119244.000000
24170 24171 1 0.09450 207108.000000
24172 24173 1 0.16500 119244.000000
24173 24174 1 0.09450 207108.000000
24175 24176 1 0.16500 119244.000000
24176 24177 1 0.09450 207108.000000
24178 24179 1 0.16500 119244.000000
24179 24180 1 0.09450 207108.000000
24181 24182 1 0.16500 119244.000000
24182 24183 1 0.09450 207108.000000
24184 24185 1 0.16500 119244.000000
24185 24186 1 0.09450 207108.000000
24187 24188 1 0.16500 119244.000000
24188 24189 1 0.09450 207108.000000
24190 24191 1 0.16500 119244.000000
24191 24192 1 0.09450 207108.000000
24193 24194 1 0.16500 119244.000000
24194 24195 1 0.09450 207108.000000
24196 24197 1 0.16500 119244.000000
24197 24198 1 0.09450 207108.000000
24199 24200 1 0.16500 119244.000000
24200 24201 1 0.09450 207108.000000
24202 24203 1 0.16500 119244.000000
24203 24204 1 0.09450 207108.000000
24205 24206 1 0.16500 119244.000000
24206 24207 1 0.09450 207108.000000
24208 24209 1 0.16500 119244.000000
24209 24210 1 0.09450 207108.000000
24211 24212 1 0.16500 119244.000000
24212 24213 1 0.09450 207108.000000
24214 24215 1 0.16500 119244.000000
24215 24216 1 0.09450 207108.000000
24217 24218 1 0.16500 119244.000000
24218 24219 1 0.09450 207108.000000
24220 24221 1 0.16500 119244.000000
24221 24222 1 0.09450 207108.000000
24223 24224 1 0.16500 119244.000000
24224 24225 1 0.09450 207108.000000
24226 24227 1 0.16500 119244.000000
24227 24228 1 0.09450 207108.000000
24229 24230 1 0.16500 119244.000000
24230 24231 1 0.09450 207108.000000
24232 24233 1 0.16500 119244.000000
24233 24234 1 0.09450 207108.000000
24235 24236 1 0.16500 119244.000000
24236 24237 1 0.09450 207108.000000
24238 24239 1 0.16500 119244.000000
24239 24240 1 0.09450 207108.000000
24241 24242 1 0.16500 119244.000000
24242 24243 1 0.09450 207108.000000
24244 24245 1 0.16500 119244.000000
24245 24246 1 0.09450 207108.000000
24247 24248 1 0.16500 119244.000000
24248 24249 1 0.09450 207108.000000
24250 24251 1 0.16500 119244.000000
24251 24252 1 0.09450 207108.000000
24253 24254 1 0.16500 119244.000000
24254 24255 1 0.09450 207108.000000
24256 24257 1 0.16500 119244.000000
24257 24258 1 0.09450 207108.000000
24259 24260 1 0.16500 119244.000000
24260 24261 1 0.09450 207108.000000
24262 24263 1 0.16500 119244.000000
24263 24264 1 0.09450 207108.000000
24265 24266 1 0.16500 119244.000000
24266 24267 1 0.09450 207108.000000
24268 24269 1 0.16500 119244.000000
24269 24270 1 0.09450 207108.000000
24271 24272 1 0.16500 119244.000000
24272 24273 1 0.09450 207108.000000
24274 24275 1 0.16500 119244.000000
24275 24276 1 0.09450 207108.000000
24277 24278 1 0.16500 119244.000000
24278 24279 1 0.09450 207108.000000
24280 24281 1 0.16500 119244.000000
24281 24282 1 0.09450 207108.000000
24283 24284 1 0.16500 119244.000000
24284 24285 1 0.09450 207108.000000
24286 24287 1 0.16500 119244.000000
24287 24288 1 0.09450 207108.000000
24289 24290 1 0.16500 119244.000000
24290 24291 1 0.09450 207108.000000
24292 24293 1 0.16500 119244.000000
24293 24294 1 0.09450 207108.000000
24295 24296 1 0.16500 119244.000000
24296 24297 1 0.09450 207108.000000
24298 24299 1 0.16500 119244.000000
24299 24300 1 0.09450 207108.000000
24301 24302 1 0.16500 119244.000000
24302 24303 1 0.09450 207108.000000
24304 24305 1 0.16500 119244.000000
24305 24306 1 0.09450 207108.000000
24307 24308 1 0.16500 119244.000000
24307 24310 1 0.16500 119244.000000
24308 24309 1 0.09450 207108.000000
24310 24311 1 0.09450 207108.000000
24312 24313 1 0.16500 119244.000000
24312 24315 1 0.16500 119244.000000
24313 24314 1 0.09450 207108.000000
24315 24316 1 0.09450 207108.000000
24317 24318 1 0.16500 119244.000000
24317 24320 1 0.16500 119244.000000
24318 24319 1 0.09450 207108.000000
24320 24321 1 0.09450 207108.000000
24322 24323 1 0.16500 119244.000000
24322 24325 1 0.16500 119244.000000
24323 24324 1 0.09450 207108.000000
24325 24326 1 0.09450 207108.000000
24327 24328 1 0.16500 119244.000000
24327 24330 1 0.16500 119244.000000
24328 24329 1 0.09450 207108.000000
24330 24331 1 0.09450 207108.000000
24332 24333 1 0.16500 119244.000000
24332 24335 1 0.16500 119244.000000
24333 24334 1 0.09450 207108.000000
24335 24336 1 0.09450 207108.000000
24337 24338 1 0.16500 119244.000000
24337 24340 1 0.16500 119244.000000
24338 24339 1 0.09450 207108.000000
24340 24341 1 0.09450 207108.000000
24342 24343 1 0.16500 119244.000000
24342 24345 1 0.16500 119244.000000
24343 24344 1 0.09450 207108.000000
24345 24346 1 0.09450 207108.000000
24347 24348 1 0.16500 119244.000000
24347 24350 1 0.16500 119244.000000
24348 24349 1 0.09450 207108.000000
24350 24351 1 0.09450 207108.000000
24352 24353 1 0.16500 119244.000000
24352 24355 1 0.16500 119244.000000
24353 24354 1 0.09450 207108.000000
24355 24356 1 0.09450 207108.000000
24357 24358 1 0.16500 119244.000000
24357 24360 1 0.16500 119244.000000
24358 24359 1 0.09450 207108.000000
24360 24361 1 0.09450 207108.000000
24362 24363 1 0.16500 119244.000000
24362 24365 1 0.16500 119244.000000
24363 24364 1 0.09450 207108.000000
24365 24366 1 0.09450 207108.000000
24367 24368 1 0.16500 119244.000000
24367 24370 1 0.16500 119244.000000
24368 24369 1 0.09450 207108.000000
24370 24371 1 0.09450 207108.000000
24372 24373 1 0.16500 119244.000000
24372 24375 1 0.16500 119244.000000
24373 24374 1 0.09450 207108.000000
24375 24376 1 0.09450 207108.000000
24377 24378 1 0.16500 119244.000000
24377 24380 1 0.16500 119244.000000
24378 24379 1 0.09450 207108.000000
24380 24381 1 0.09450 207108.000000
24382 24383 1 0.16500 119244.000000
24382 24385 1 0.16500 119244.000000
24383 24384 1 0.09450 207108.000000
24385 24386 1 0.09450 207108.000000
24387 24388 1 0.16500 119244.000000
24387 24390 1 0.16500 119244.000000
24388 24389 1 0.09450 207108.000000
24390 24391 1 0.09450 207108.000000
24392 24393 1 0.16500 119244.000000
24392 24395 1 0.16500 119244.000000
24393 24394 1 0.09450 207108.000000
24395 24396 1 0.09450 207108.000000
24397 24398 1 0.16500 119244.000000
24397 24400 1 0.16500 119244.000000
24398 24399 1 0.09450 207108.000000
24400 24401 1 0.09450 207108.000000
24402 24403 1 0.16500 119244.000000
24402 24405 1 0.16500 119244.000000
24403 24404 1 0.09450 207108.000000
24405 24406 1 0.09450 207108.000000
24407 24408 1 0.16500 119244.000000
24407 24410 1 0.16500 119244.000000
24408 24409 1 0.09450 207108.000000
24410 24411 1 0.09450 207108.000000
24412 24413 1 0.16500 119244.000000
24412 24415 1 0.16500 119244.000000
24413 24414 1 0.09450 207108.000000
24415 24416 1 0.09450 207108.000000
24417 24418 1 0.16500 119244.000000
24417 24420 1 0.16500 119244.000000
24418 24419 1 0.09450 207108.000000
24420 24421 1 0.09450 207108.000000
24422 24423 1 0.16500 119244.000000
24422 24425 1 0.16500 119244.000000
24423 24424 1 0.09450 207108.000000
24425 24426 1 0.09450 207108.000000
24427 24428 1 0.16500 119244.000000
24427 24430 1 0.16500 119244.000000
24428 24429 1 0.09450 207108.000000
24430 24431 1 0.09450 207108.000000
24432 24433 1 0.16500 119244.000000
24432 24435 1 0.16500 119244.000000
24433 24434 1 0.09450 207108.000000
24435 24436 1 0.09450 207108.000000
24437 24438 1 0.16500 119244.000000
24437 24440 1 0.16500 119244.000000
24438 24439 1 0.09450 207108.000000
24440 24441 1 0.09450 207108.000000
24442 24443 1 0.16500 119244.000000
24442 24445 1 0.16500 119244.000000
24443 24444 1 0.09450 207108.000000
24445 24446 1 0.09450 207108.000000
24447 24448 1 0.16500 119244.000000
24447 24450 1 0.16500 119244.000000
24448 24449 1 0.09450 207108.000000
24450 24451 1 0.09450 207108.000000
24452 24453 1 0.16500 119244.000000
24452 24455 1 0.16500 119244.000000
24453 24454 1 0.09450 207108.000000
24455 24456 1 0.09450 207108.000000
24457 24458 1 0.16500 119244.000000
24457 24460 1 0.16500 119244.000000
24458 24459 1 0.09450 207108.000000
24460 24461 1 0.09450 207108.000000
24462 24463 1 0.16500 119244.000000
24462 24465 1 0.16500 119244.000000
24463 24464 1 0.09450 207108.000000
24465 24466 1 0.09450 207108.000000
24467 24468 1 0.16500 119244.000000
24467 24470 1 0.16500 119244.000000
24468 24469 1 0.09450 207108.000000
24470 24471 1 0.09450 207108.000000
24472 24473 1 0.16500 119244.000000
24472 24475 1 0.16500 119244.000000
24473 24474 1 0.09450 207108.000000
24475 24476 1 0.09450 207108.000000
24477 24478 1 0.16500 119244.000000
24477 24480 1 0.16500 119244.000000
24478 24479 1 0.09450 207108.000000
24480 24481 1 0.09450 207108.000000
24482 24483 1 0.16500 119244.000000
24482 24485 1 0.16500 119244.000000
24483 24484 1 0.09450 207108.000000
24485 24486 1 0.09450 207108.000000

[ pairs ]
; ai aj funct params
16280 16283 1
16280 16284 1
16280 16288 1
16280 16291 1
16281 16285 1
16281 16286 1
16281 16289 1
16282 16287 1
16282 16288 1
16282 16291 1
16283 16285 1
16283 16286 1
16283 16290 1
16284 16289 1
16284 16290 1
16285 16287 1
16285 16288 1
16286 16291 1
16287 16289 1
16287 16290 1
16289 16291 1
16294 16297 1
16294 16298 1
16294 16302 1
16294 16305 1
16295 16299 1
16295 16300 1
16295 16303 1
16296 16301 1
16296 16302 1
16296 16305 1
16297 16299 1
16297 16300 1
16297 16304 1
16298 16303 1
16298 16304 1
16299 16301 1
16299 16302 1
16300 16305 1
16301 16303 1
16301 16304 1
16303 16305 1
16308 16311 1
16308 16312 1
16308 16316 1
16308 16319 1
16309 16313 1
16309 16314 1
16309 16317 1
16310 16315 1
16310 16316 1
16310 16319 1
16311 16313 1
16311 16314 1
16311 16318 1
16312 16317 1
16312 16318 1
16313 16315 1
16313 16316 1
16314 16319 1
16315 16317 1
16315 16318 1
16317 16319 1
16322 16325 1
16322 16326 1
16322 16330 1
16322 16333 1
16323 16327 1
16323 16328 1
16323 16331 1
16324 16329 1
16324 16330 1
16324 16333 1
16325 16327 1
16325 16328 1
16325 16332 1
16326 16331 1
16326 16332 1
16327 16329 1
16327 16330 1
16328 16333 1
16329 16331 1
16329 16332 1
16331 16333 1
16336 16339 1
16336 16340 1
16336 16344 1
16336 16347 1
16337 16341 1
16337 16342 1
16337 16345 1
16338 16343 1
16338 16344 1
16338 16347 1
16339 16341 1
16339 16342 1
16339 16346 1
16340 16345 1
16340 16346 1
16341 16343 1
16341 16344 1
16342 16347 1
16343 16345 1
16343 16346 1
16345 16347 1
16350 16353 1
16350 16354 1
16350 16358 1
16350 16361 1
16351 16355 1
16351 16356 1
16351 16359 1
16352 16357 1
16352 16358 1
16352 16361 1
16353 16355 1
16353 16356 1
16353 16360 1
16354 16359 1
16354 16360 1
16355 16357 1
16355 16358 1
16356 16361 1
16357 16359 1
16357 16360 1
16359 16361 1
16364 16367 1
16364 16368 1
16364 16372 1
16364 16375 1
16365 16369 1
16365 16370 1
16365 16373 1
16366 16371 1
16366 16372 1
16366 16375 1
16367 16369 1
16367 16370 1
16367 16374 1
16368 16373 1
16368 16374 1
16369 16371 1
16369 16372 1
16370 16375 1
16371 16373 1
16371 16374 1
16373 16375 1
16378 16381 1
16378 16382 1
16378 16386 1
16378 16389 1
16379 16383 1
16379 16384 1
16379 16387 1
16380 16385 1
16380 16386 1
16380 16389 1
16381 16383 1
16381 16384 1
16381 16388 1
16382 16387 1
16382 16388 1
16383 16385 1
16383 16386 1
16384 16389 1
16385 16387 1
16385 16388 1
16387 16389 1
16392 16395 1
16392 16396 1
16392 16400 1
16392 16403 1
16393 16397 1
16393 16398 1
16393 16401 1
16394 16399 1
16394 16400 1
16394 16403 1
16395 16397 1
16395 16398 1
16395 16402 1
16396 16401 1
16396 16402 1
16397 16399 1
16397 16400 1
16398 16403 1
16399 16401 1
16399 16402 1
16401 16403 1
16406 16409 1
16406 16410 1
16406 16414 1
16406 16417 1
16407 16411 1
16407 16412 1
16407 16415 1
16408 16413 1
16408 16414 1
16408 16417 1
16409 16411 1
16409 16412 1
16409 16416 1
16410 16415 1
16410 16416 1
16411 16413 1
16411 16414 1
16412 16417 1
16413 16415 1
16413 16416 1
16415 16417 1
16420 16423 1
16420 16424 1
16420 16428 1
16420 16431 1
16421 16425 1
16421 16426 1
16421 16429 1
16422 16427 1
16422 16428 1
16422 16431 1
16423 16425 1
16423 16426 1
16423 16430 1
16424 16429 1
16424 16430 1
16425 16427 1
16425 16428 1
16426 16431 1
16427 16429 1
16427 16430 1
16429 16431 1
16434 16437 1
16434 16438 1
16434 16442 1
16434 16445 1
16435 16439 1
16435 16440 1
16435 16443 1
16436 16441 1
16436 16442 1
16436 16445 1
16437 16439 1
16437 16440 1
16437 16444 1
16438 16443 1
16438 16444 1
16439 16441 1
16439 16442 1
16440 16445 1
16441 16443 1
16441 16444 1
16443 16445 1
16448 16451 1
16448 16452 1
16448 16456 1
16448 16459 1
16449 16453 1
16449 16454 1
16449 16457 1
16450 16455 1
16450 16456 1
16450 16459 1
16451 16453 1
16451 16454 1
16451 16458 1
16452 16457 1
16452 16458 1
16453 16455 1
16453 16456 1
16454 16459 1
16455 16457 1
16455 16458 1
16457 16459 1
16462 16465 1
16462 16466 1
16462 16470 1
16462 16473 1
16463 16467 1
16463 16468 1
16463 16471 1
16464 16469 1
16464 16470 1
16464 16473 1
16465 16467 1
16465 16468 1
16465 16472 1
16466 16471 1
16466 16472 1
16467 16469 1
16467 16470 1
16468 16473 1
16469 16471 1
16469 16472 1
16471 16473 1
16476 16479 1
16476 16480 1
16476 16484 1
16476 16487 1
16477 16481 1
16477 16482 1
16477 16485 1
16478 16483 1
16478 16484 1
16478 16487 1
16479 16481 1
16479 16482 1
16479 16486 1
16480 16485 1
16480 16486 1
16481 16483 1
16481 16484 1
16482 16487 1
16483 16485 1
16483 16486 1
16485 16487 1
16490 16493 1
16490 16494 1
16490 16498 1
16490 16501 1
16491 16495 1
16491 16496 1
16491 16499 1
16492 16497 1
16492 16498 1
16492 16501 1
16493 16495 1
16493 16496 1
16493 16500 1
16494 16499 1
16494 16500 1
16495 16497 1
16495 16498 1
16496 16501 1
16497 16499 1
16497 16500 1
16499 16501 1
16504 16507 1
16504 16508 1
16504 16512 1
16504 16515 1
16505 16509 1
16505 16510 1
16505 16513 1
16506 16511 1
16506 16512 1
16506 16515 1
16507 16509 1
16507 16510 1
16507 16514 1
16508 16513 1
16508 16514 1
16509 16511 1
16509 16512 1
16510 16515 1
16511 16513 1
16511 16514 1
16513 16515 1
16518 16521 1
16518 16522 1
16518 16526 1
16518 16529 1
16519 16523 1
16519 16524 1
16519 16527 1
16520 16525 1
16520 16526 1
16520 16529 1
16521 16523 1
16521 16524 1
16521 16528 1
16522 16527 1
16522 16528 1
16523 16525 1
16523 16526 1
16524 16529 1
16525 16527 1
16525 16528 1
16527 16529 1
16532 16535 1
16532 16536 1
16532 16540 1
16532 16543 1
16533 16537 1
16533 16538 1
16533 16541 1
16534 16539 1
16534 16540 1
16534 16543 1
16535 16537 1
16535 16538 1
16535 16542 1
16536 16541 1
16536 16542 1
16537 16539 1
16537 16540 1
16538 16543 1
16539 16541 1
16539 16542 1
16541 16543 1
16546 16549 1
16546 16550 1
16546 16554 1
16546 16557 1
16547 16551 1
16547 16552 1
16547 16555 1
16548 16553 1
16548 16554 1
16548 16557 1
16549 16551 1
16549 16552 1
16549 16556 1
16550 16555 1
16550 16556 1
16551 16553 1
16551 16554 1
16552 16557 1
16553 16555 1
16553 16556 1
16555 16557 1
16560 16563 1
16560 16564 1
16560 16568 1
16560 16571 1
16561 16565 1
16561 16566 1
16561 16569 1
16562 16567 1
16562 16568 1
16562 16571 1
16563 16565 1
16563 16566 1
16563 16570 1
16564 16569 1
16564 16570 1
16565 16567 1
16565 16568 1
16566 16571 1
16567 16569 1
16567 16570 1
16569 16571 1
16574 16577 1
16574 16578 1
16574 16582 1
16574 16585 1
16575 16579 1
16575 16580 1
16575 16583 1
16576 16581 1
16576 16582 1
16576 16585 1
16577 16579 1
16577 16580 1
16577 16584 1
16578 16583 1
16578 16584 1
16579 16581 1
16579 16582 1
16580 16585 1
16581 16583 1
16581 16584 1
16583 16585 1
16588 16591 1
16588 16592 1
16588 16596 1
16588 16599 1
16589 16593 1
16589 16594 1
16589 16597 1
16590 16595 1
16590 16596 1
16590 16599 1
16591 16593 1
16591 16594 1
16591 16598 1
16592 16597 1
16592 16598 1
16593 16595 1
16593 16596 1
16594 16599 1
16595 16597 1
16595 16598 1
16597 16599 1
16602 16605 1
16602 16606 1
16602 16610 1
16602 16613 1
16603 16607 1
16603 16608 1
16603 16611 1
16604 16609 1
16604 16610 1
16604 16613 1
16605 16607 1
16605 16608 1
16605 16612 1
16606 16611 1
16606 16612 1
16607 16609 1
16607 16610 1
16608 16613 1
16609 16611 1
16609 16612 1
16611 16613 1
16616 16619 1
16616 16620 1
16616 16624 1
16616 16627 1
16617 16621 1
16617 16622 1
16617 16625 1
16618 16623 1
16618 16624 1
16618 16627 1
16619 16621 1
16619 16622 1
16619 16626 1
16620 16625 1
16620 16626 1
16621 16623 1
16621 16624 1
16622 16627 1
16623 16625 1
16623 16626 1
16625 16627 1
16630 16633 1
16630 16634 1
16630 16638 1
16630 16641 1
16631 16635 1
16631 16636 1
16631 16639 1
16632 16637 1
16632 16638 1
16632 16641 1
16633 16635 1
16633 16636 1
16633 16640 1
16634 16639 1
16634 16640 1
16635 16637 1
16635 16638 1
16636 16641 1
16637 16639 1
16637 16640 1
16639 16641 1
16644 16647 1
16644 16648 1
16644 16652 1
16644 16655 1
16645 16649 1
16645 16650 1
16645 16653 1
16646 16651 1
16646 16652 1
16646 16655 1
16647 16649 1
16647 16650 1
16647 16654 1
16648 16653 1
16648 16654 1
16649 16651 1
16649 16652 1
16650 16655 1
16651 16653 1
16651 16654 1
16653 16655 1
16658 16661 1
16658 16662 1
16658 16666 1
16658 16669 1
16659 16663 1
16659 16664 1
16659 16667 1
16660 16665 1
16660 16666 1
16660 16669 1
16661 16663 1
16661 16664 1
16661 16668 1
16662 16667 1
16662 16668 1
16663 16665 1
16663 16666 1
16664 16669 1
16665 16667 1
16665 16668 1
16667 16669 1
16672 16675 1
16672 16676 1
16672 16680 1
16672 16683 1
16673 16677 1
16673 16678 1
16673 16681 1
16674 16679 1
16674 16680 1
16674 16683 1
16675 16677 1
16675 16678 1
16675 16682 1
16676 16681 1
16676 16682 1
16677 16679 1
16677 16680 1
16678 16683 1
16679 16681 1
16679 16682 1
16681 16683 1
16686 16689 1
16686 16690 1
16686 16694 1
16686 16697 1
16687 16691 1
16687 16692 1
16687 16695 1
16688 16693 1
16688 16694 1
16688 16697 1
16689 16691 1
16689 16692 1
16689 16696 1
16690 16695 1
16690 16696 1
16691 16693 1
16691 16694 1
16692 16697 1
16693 16695 1
16693 16696 1
16695 16697 1
16700 16703 1
16700 16704 1
16700 16708 1
16700 16711 1
16701 16705 1
16701 16706 1
16701 16709 1
16702 16707 1
16702 16708 1
16702 16711 1
16703 16705 1
16703 16706 1
16703 16710 1
16704 16709 1
16704 16710 1
16705 16707 1
16705 16708 1
16706 16711 1
16707 16709 1
16707 16710 1
16709 16711 1
16714 16717 1
16714 16718 1
16714 16722 1
16714 16725 1
16715 16719 1
16715 16720 1
16715 16723 1
16716 16721 1
16716 16722 1
16716 16725 1
16717 16719 1
16717 16720 1
16717 16724 1
16718 16723 1
16718 16724 1
16719 16721 1
16719 16722 1
16720 16725 1
16721 16723 1
16721 16724 1
16723 16725 1
16728 16731 1
16728 16732 1
16728 16736 1
16728 16739 1
16729 16733 1
16729 16734 1
16729 16737 1
16730 16735 1
16730 16736 1
16730 16739 1
16731 16733 1
16731 16734 1
16731 16738 1
16732 16737 1
16732 16738 1
16733 16735 1
16733 16736 1
16734 16739 1
16735 16737 1
16735 16738 1
16737 16739 1
16742 16745 1
16742 16746 1
16742 16750 1
16742 16753 1
16743 16747 1
16743 16748 1
16743 16751 1
16744 16749 1
16744 16750 1
16744 16753 1
16745 16747 1
16745 16748 1
16745 16752 1
16746 16751 1
16746 16752 1
16747 16749 1
16747 16750 1
16748 16753 1
16749 16751 1
16749 16752 1
16751 16753 1
16756 16759 1
16756 16760 1
16756 16764 1
16756 16767 1
16757 16761 1
16757 16762 1
16757 16765 1
16758 16763 1
16758 16764 1
16758 16767 1
16759 16761 1
16759 16762 1
16759 16766 1
16760 16765 1
16760 16766 1
16761 16763 1
16761 16764 1
16762 16767 1
16763 16765 1
16763 16766 1
16765 16767 1
16770 16773 1
16770 16774 1
16770 16778 1
16770 16781 1
16771 16775 1
16771 16776 1
16771 16779 1
16772 16777 1
16772 16778 1
16772 16781 1
16773 16775 1
16773 16776 1
16773 16780 1
16774 16779 1
16774 16780 1
16775 16777 1
16775 16778 1
16776 16781 1
16777 16779 1
16777 16780 1
16779 16781 1
16784 16787 1
16784 16788 1
16784 16792 1
16784 16795 1
16785 16789 1
16785 16790 1
16785 16793 1
16786 16791 1
16786 16792 1
16786 16795 1
16787 16789 1
16787 16790 1
16787 16794 1
16788 16793 1
16788 16794 1
16789 16791 1
16789 16792 1
16790 16795 1
16791 16793 1
16791 16794 1
16793 16795 1
16798 16801 1
16798 16802 1
16798 16806 1
16798 16809 1
16799 16803 1
16799 16804 1
16799 16807 1
16800 16805 1
16800 16806 1
16800 16809 1
16801 16803 1
16801 16804 1
16801 16808 1
16802 16807 1
16802 16808 1
16803 16805 1
16803 16806 1
16804 16809 1
16805 16807 1
16805 16808 1
16807 16809 1
16812 16815 1
16812 16816 1
16812 16820 1
16812 16823 1
16813 16817 1
16813 16818 1
16813 16821 1
16814 16819 1
16814 16820 1
16814 16823 1
16815 16817 1
16815 16818 1
16815 16822 1
16816 16821 1
16816 16822 1
16817 16819 1
16817 16820 1
16818 16823 1
16819 16821 1
16819 16822 1
16821 16823 1
16826 16829 1
16826 16830 1
16826 16834 1
16826 16837 1
16827 16831 1
16827 16832 1
16827 16835 1
16828 16833 1
16828 16834 1
16828 16837 1
16829 16831 1
16829 16832 1
16829 16836 1
16830 16835 1
16830 16836 1
16831 16833 1
16831 16834 1
16832 16837 1
16833 16835 1
16833 16836 1
16835 16837 1
16840 16843 1
16840 16844 1
16840 16848 1
16840 16851 1
16841 16845 1
16841 16846 1
16841 16849 1
16842 16847 1
16842 16848 1
16842 16851 1
16843 16845 1
16843 16846 1
16843 16850 1
16844 16849 1
16844 16850 1
16845 16847 1
16845 16848 1
16846 16851 1
16847 16849 1
16847 16850 1
16849 16851 1
16854 16857 1
16854 16858 1
16854 16862 1
16854 16865 1
16855 16859 1
16855 16860 1
16855 16863 1
16856 16861 1
16856 16862 1
16856 16865 1
16857 16859 1
16857 16860 1
16857 16864 1
16858 16863 1
16858 16864 1
16859 16861 1
16859 16862 1
16860 16865 1
16861 16863 1
16861 16864 1
16863 16865 1
16868 16871 1
16868 16872 1
16868 16876 1
16868 16879 1
16869 16873 1
16869 16874 1
16869 16877 1
16870 16875 1
16870 16876 1
16870 16879 1
16871 16873 1
16871 16874 1
16871 16878 1
16872 16877 1
16872 16878 1
16873 16875 1
16873 16876 1
16874 16879 1
16875 16877 1
16875 16878 1
16877 16879 1
16882 16885 1
16882 16886 1
16882 16890 1
16882 16893 1
16883 16887 1
16883 16888 1
16883 16891 1
16884 16889 1
16884 16890 1
16884 16893 1
16885 16887 1
16885 16888 1
16885 16892 1
16886 16891 1
16886 16892 1
16887 16889 1
16887 16890 1
16888 16893 1
16889 16891 1
16889 16892 1
16891 16893 1
16896 16899 1
16896 16900 1
16896 16904 1
16896 16907 1
16897 16901 1
16897 16902 1
16897 16905 1
16898 16903 1
16898 16904 1
16898 16907 1
16899 16901 1
16899 16902 1
16899 16906 1
16900 16905 1
16900 16906 1
16901 16903 1
16901 16904 1
16902 16907 1
16903 16905 1
16903 16906 1
16905 16907 1
16910 16913 1
16910 16914 1
16910 16918 1
16910 16921 1
16911 16915 1
16911 16916 1
16911 16919 1
16912 16917 1
16912 16918 1
16912 16921 1
16913 16915 1
16913 16916 1
16913 16920 1
16914 16919 1
16914 16920 1
16915 16917 1
16915 16918 1
16916 16921 1
16917 16919 1
16917 16920 1
16919 16921 1
16924 16927 1
16924 16928 1
16924 16932 1
16924 16935 1
16925 16929 1
16925 16930 1
16925 16933 1
16926 16931 1
16926 16932 1
16926 16935 1
16927 16929 1
16927 16930 1
16927 16934 1
16928 16933 1
16928 16934 1
16929 16931 1
16929 16932 1
16930 16935 1
16931 16933 1
16931 16934 1
16933 16935 1
16938 16941 1
16938 16942 1
16938 16946 1
16938 16949 1
16939 16943 1
16939 16944 1
16939 16947 1
16940 16945 1
16940 16946 1
16940 16949 1
16941 16943 1
16941 16944 1
16941 16948 1
16942 16947 1
16942 16948 1
16943 16945 1
16943 16946 1
16944 16949 1
16945 16947 1
16945 16948 1
16947 16949 1
16952 16955 1
16952 16956 1
16952 16960 1
16952 16963 1
16953 16957 1
16953 16958 1
16953 16961 1
16954 16959 1
16954 16960 1
16954 16963 1
16955 16957 1
16955 16958 1
16955 16962 1
16956 16961 1
16956 16962 1
16957 16959 1
16957 16960 1
16958 16963 1
16959 16961 1
16959 16962 1
16961 16963 1
16966 16969 1
16966 16970 1
16966 16974 1
16966 16977 1
16967 16971 1
16967 16972 1
16967 16975 1
16968 16973 1
16968 16974 1
16968 16977 1
16969 16971 1
16969 16972 1
16969 16976 1
16970 16975 1
16970 16976 1
16971 16973 1
16971 16974 1
16972 16977 1
16973 16975 1
16973 16976 1
16975 16977 1
16980 16983 1
16980 16984 1
16980 16988 1
16980 16991 1
16981 16985 1
16981 16986 1
16981 16989 1
16982 16987 1
16982 16988 1
16982 16991 1
16983 16985 1
16983 16986 1
16983 16990 1
16984 16989 1
16984 16990 1
16985 16987 1
16985 16988 1
16986 16991 1
16987 16989 1
16987 16990 1
16989 16991 1
16994 16997 1
16994 16998 1
16994 17002 1
16994 17005 1
16995 16999 1
16995 17000 1
16995 17003 1
16996 17001 1
16996 17002 1
16996 17005 1
16997 16999 1
16997 17000 1
16997 17004 1
16998 17003 1
16998 17004 1
16999 17001 1
16999 17002 1
17000 17005 1
17001 17003 1
17001 17004 1
17003 17005 1
17008 17011 1
17008 17012 1
17008 17016 1
17008 17019 1
17009 17013 1
17009 17014 1
17009 17017 1
17010 17015 1
17010 17016 1
17010 17019 1
17011 17013 1
17011 17014 1
17011 17018 1
17012 17017 1
17012 17018 1
17013 17015 1
17013 17016 1
17014 17019 1
17015 17017 1
17015 17018 1
17017 17019 1
17022 17025 1
17022 17026 1
17022 17030 1
17022 17033 1
17023 17027 1
17023 17028 1
17023 17031 1
17024 17029 1
17024 17030 1
17024 17033 1
17025 17027 1
17025 17028 1
17025 17032 1
17026 17031 1
17026 17032 1
17027 17029 1
17027 17030 1
17028 17033 1
17029 17031 1
17029 17032 1
17031 17033 1
17036 17039 1
17036 17040 1
17036 17044 1
17036 17047 1
17037 17041 1
17037 17042 1
17037 17045 1
17038 17043 1
17038 17044 1
17038 17047 1
17039 17041 1
17039 17042 1
17039 17046 1
17040 17045 1
17040 17046 1
17041 17043 1
17041 17044 1
17042 17047 1
17043 17045 1
17043 17046 1
17045 17047 1
17050 17053 1
17050 17054 1
17050 17058 1
17050 17061 1
17051 17055 1
17051 17056 1
17051 17059 1
17052 17057 1
17052 17058 1
17052 17061 1
17053 17055 1
17053 17056 1
17053 17060 1
17054 17059 1
17054 17060 1
17055 17057 1
17055 17058 1
17056 17061 1
17057 17059 1
17057 17060 1
17059 17061 1
17064 17067 1
17064 17068 1
17064 17072 1
17064 17075 1
17065 17069 1
17065 17070 1
17065 17073 1
17066 17071 1
17066 17072 1
17066 17075 1
17067 17069 1
17067 17070 1
17067 17074 1
17068 17073 1
17068 17074 1
17069 17071 1
17069 17072 1
17070 17075 1
17071 17073 1
17071 17074 1
17073 17075 1
17078 17081 1
17078 17082 1
17078 17086 1
17078 17089 1
17079 17083 1
17079 17084 1
17079 17087 1
17080 17085 1
17080 17086 1
17080 17089 1
17081 17083 1
17081 17084 1
17081 17088 1
17082 17087 1
17082 17088 1
17083 17085 1
17083 17086 1
17084 17089 1
17085 17087 1
17085 17088 1
17087 17089 1
17092 17095 1
17092 17096 1
17092 17100 1
17092 17103 1
17093 17097 1
17093 17098 1
17093 17101 1
17094 17099 1
17094 17100 1
17094 17103 1
17095 17097 1
17095 17098 1
17095 17102 1
17096 17101 1
17096 17102 1
17097 17099 1
17097 17100 1
17098 17103 1
17099 17101 1
17099 17102 1
17101 17103 1
17106 17109 1
17106 17110 1
17106 17114 1
17106 17117 1
17107 17111 1
17107 17112 1
17107 17115 1
17108 17113 1
17108 17114 1
17108 17117 1
17109 17111 1
17109 17112 1
17109 17116 1
17110 17115 1
17110 17116 1
17111 17113 1
17111 17114 1
17112 17117 1
17113 17115 1
17113 17116 1
17115 17117 1
17120 17123 1
17120 17124 1
17120 17128 1
17120 17131 1
17121 17125 1
17121 17126 1
17121 17129 1
17122 17127 1
17122 17128 1
17122 17131 1
17123 17125 1
17123 17126 1
17123 17130 1
17124 17129 1
17124 17130 1
17125 17127 1
17125 17128 1
17126 17131 1
17127 17129 1
17127 17130 1
17129 17131 1
17134 17137 1
17134 17138 1
17134 17142 1
17134 17145 1
17135 17139 1
17135 17140 1
17135 17143 1
17136 17141 1
17136 17142 1
17136 17145 1
17137 17139 1
17137 17140 1
17137 17144 1
17138 17143 1
17138 17144 1
17139 17141 1
17139 17142 1
17140 17145 1
17141 17143 1
17141 17144 1
17143 17145 1
17148 17151 1
17148 17152 1
17148 17156 1
17148 17159 1
17149 17153 1
17149 17154 1
17149 17157 1
17150 17155 1
17150 17156 1
17150 17159 1
17151 17153 1
17151 17154 1
17151 17158 1
17152 17157 1
17152 17158 1
17153 17155 1
17153 17156 1
17154 17159 1
17155 17157 1
17155 17158 1
17157 17159 1
17162 17165 1
17162 17166 1
17162 17170 1
17162 17173 1
17163 17167 1
17163 17168 1
17163 17171 1
17164 17169 1
17164 17170 1
17164 17173 1
17165 17167 1
17165 17168 1
17165 17172 1
17166 17171 1
17166 17172 1
17167 17169 1
17167 17170 1
17168 17173 1
17169 17171 1
17169 17172 1
17171 17173 1
17176 17179 1
17176 17180 1
17176 17184 1
17176 17187 1
17177 17181 1
17177 17182 1
17177 17185 1
17178 17183 1
17178 17184 1
17178 17187 1
17179 17181 1
17179 17182 1
17179 17186 1
17180 17185 1
17180 17186 1
17181 17183 1
17181 17184 1
17182 17187 1
17183 17185 1
17183 17186 1
17185 17187 1
17190 17193 1
17190 17194 1
17190 17198 1
17190 17201 1
17191 17195 1
17191 17196 1
17191 17199 1
17192 17197 1
17192 17198 1
17192 17201 1
17193 17195 1
17193 17196 1
17193 17200 1
17194 17199 1
17194 17200 1
17195 17197 1
17195 17198 1
17196 17201 1
17197 17199 1
17197 17200 1
17199 17201 1
17204 17207 1
17204 17208 1
17204 17212 1
17204 17215 1
17205 17209 1
17205 17210 1
17205 17213 1
17206 17211 1
17206 17212 1
17206 17215 1
17207 17209 1
17207 17210 1
17207 17214 1
17208 17213 1
17208 17214 1
17209 17211 1
17209 17212 1
17210 17215 1
17211 17213 1
17211 17214 1
17213 17215 1
17218 17221 1
17218 17222 1
17218 17226 1
17218 17229 1
17219 17223 1
17219 17224 1
17219 17227 1
17220 17225 1
17220 17226 1
17220 17229 1
17221 17223 1
17221 17224 1
17221 17228 1
17222 17227 1
17222 17228 1
17223 17225 1
17223 17226 1
17224 17229 1
17225 17227 1
17225 17228 1
17227 17229 1
17232 17235 1
17232 17236 1
17232 17240 1
17232 17243 1
17233 17237 1
17233 17238 1
17233 17241 1
17234 17239 1
17234 17240 1
17234 17243 1
17235 17237 1
17235 17238 1
17235 17242 1
17236 17241 1
17236 17242 1
17237 17239 1
17237 17240 1
17238 17243 1
17239 17241 1
17239 17242 1
17241 17243 1
17246 17249 1
17246 17250 1
17246 17254 1
17246 17257 1
17247 17251 1
17247 17252 1
17247 17255 1
17248 17253 1
17248 17254 1
17248 17257 1
17249 17251 1
17249 17252 1
17249 17256 1
17250 17255 1
17250 17256 1
17251 17253 1
17251 17254 1
17252 17257 1
17253 17255 1
17253 17256 1
17255 17257 1
17260 17263 1
17260 17264 1
17260 17268 1
17260 17271 1
17261 17265 1
17261 17266 1
17261 17269 1
17262 17267 1
17262 17268 1
17262 17271 1
17263 17265 1
17263 17266 1
17263 17270 1
17264 17269 1
17264 17270 1
17265 17267 1
17265 17268 1
17266 17271 1
17267 17269 1
17267 17270 1
17269 17271 1
17274 17277 1
17274 17278 1
17274 17282 1
17274 17285 1
17275 17279 1
17275 17280 1
17275 17283 1
17276 17281 1
17276 17282 1
17276 17285 1
17277 17279 1
17277 17280 1
17277 17284 1
17278 17283 1
17278 17284 1
17279 17281 1
17279 17282 1
17280 17285 1
17281 17283 1
17281 17284 1
17283 17285 1
17288 17291 1
17288 17292 1
17288 17296 1
17288 17299 1
17289 17293 1
17289 17294 1
17289 17297 1
17290 17295 1
17290 17296 1
17290 17299 1
17291 17293 1
17291 17294 1
17291 17298 1
17292 17297 1
17292 17298 1
17293 17295 1
17293 17296 1
17294 17299 1
17295 17297 1
17295 17298 1
17297 17299 1
17302 17305 1
17302 17306 1
17302 17310 1
17302 17313 1
17303 17307 1
17303 17308 1
17303 17311 1
17304 17309 1
17304 17310 1
17304 17313 1
17305 17307 1
17305 17308 1
17305 17312 1
17306 17311 1
17306 17312 1
17307 17309 1
17307 17310 1
17308 17313 1
17309 17311 1
17309 17312 1
17311 17313 1
17316 17319 1
17316 17320 1
17316 17324 1
17316 17327 1
17317 17321 1
17317 17322 1
17317 17325 1
17318 17323 1
17318 17324 1
17318 17327 1
17319 17321 1
17319 17322 1
17319 17326 1
17320 17325 1
17320 17326 1
17321 17323 1
17321 17324 1
17322 17327 1
17323 17325 1
17323 17326 1
17325 17327 1
17330 17333 1
17330 17334 1
17330 17338 1
17330 17341 1
17331 17335 1
17331 17336 1
17331 17339 1
17332 17337 1
17332 17338 1
17332 17341 1
17333 17335 1
17333 17336 1
17333 17340 1
17334 17339 1
17334 17340 1
17335 17337 1
17335 17338 1
17336 17341 1
17337 17339 1
17337 17340 1
17339 17341 1
17344 17347 1
17344 17348 1
17344 17352 1
17344 17355 1
17345 17349 1
17345 17350 1
17345 17353 1
17346 17351 1
17346 17352 1
17346 17355 1
17347 17349 1
17347 17350 1
17347 17354 1
17348 17353 1
17348 17354 1
17349 17351 1
17349 17352 1
17350 17355 1
17351 17353 1
17351 17354 1
17353 17355 1
17358 17361 1
17358 17362 1
17358 17366 1
17358 17369 1
17359 17363 1
17359 17364 1
17359 17367 1
17360 17365 1
17360 17366 1
17360 17369 1
17361 17363 1
17361 17364 1
17361 17368 1
17362 17367 1
17362 17368 1
17363 17365 1
17363 17366 1
17364 17369 1
17365 17367 1
17365 17368 1
17367 17369 1
17372 17375 1
17372 17376 1
17372 17380 1
17372 17383 1
17373 17377 1
17373 17378 1
17373 17381 1
17374 17379 1
17374 17380 1
17374 17383 1
17375 17377 1
17375 17378 1
17375 17382 1
17376 17381 1
17376 17382 1
17377 17379 1
17377 17380 1
17378 17383 1
17379 17381 1
17379 17382 1
17381 17383 1
17386 17389 1
17386 17390 1
17386 17394 1
17386 17397 1
17387 17391 1
17387 17392 1
17387 17395 1
17388 17393 1
17388 17394 1
17388 17397 1
17389 17391 1
17389 17392 1
17389 17396 1
17390 17395 1
17390 17396 1
17391 17393 1
17391 17394 1
17392 17397 1
17393 17395 1
17393 17396 1
17395 17397 1
17400 17403 1
17400 17404 1
17400 17408 1
17400 17411 1
17401 17405 1
17401 17406 1
17401 17409 1
17402 17407 1
17402 17408 1
17402 17411 1
17403 17405 1
17403 17406 1
17403 17410 1
17404 17409 1
17404 17410 1
17405 17407 1
17405 17408 1
17406 17411 1
17407 17409 1
17407 17410 1
17409 17411 1
17414 17417 1
17414 17418 1
17414 17422 1
17414 17425 1
17415 17419 1
17415 17420 1
17415 17423 1
17416 17421 1
17416 17422 1
17416 17425 1
17417 17419 1
17417 17420 1
17417 17424 1
17418 17423 1
17418 17424 1
17419 17421 1
17419 17422 1
17420 17425 1
17421 17423 1
17421 17424 1
17423 17425 1
17428 17431 1
17428 17432 1
17428 17436 1
17428 17439 1
17429 17433 1
17429 17434 1
17429 17437 1
17430 17435 1
17430 17436 1
17430 17439 1
17431 17433 1
17431 17434 1
17431 17438 1
17432 17437 1
17432 17438 1
17433 17435 1
17433 17436 1
17434 17439 1
17435 17437 1
17435 17438 1
17437 17439 1
17442 17445 1
17442 17446 1
17442 17450 1
17442 17453 1
17443 17447 1
17443 17448 1
17443 17451 1
17444 17449 1
17444 17450 1
17444 17453 1
17445 17447 1
17445 17448 1
17445 17452 1
17446 17451 1
17446 17452 1
17447 17449 1
17447 17450 1
17448 17453 1
17449 17451 1
17449 17452 1
17451 17453 1
17456 17459 1
17456 17460 1
17456 17464 1
17456 17467 1
17457 17461 1
17457 17462 1
17457 17465 1
17458 17463 1
17458 17464 1
17458 17467 1
17459 17461 1
17459 17462 1
17459 17466 1
17460 17465 1
17460 17466 1
17461 17463 1
17461 17464 1
17462 17467 1
17463 17465 1
17463 17466 1
17465 17467 1
17470 17473 1
17470 17474 1
17470 17478 1
17470 17481 1
17471 17475 1
17471 17476 1
17471 17479 1
17472 17477 1
17472 17478 1
17472 17481 1
17473 17475 1
17473 17476 1
17473 17480 1
17474 17479 1
17474 17480 1
17475 17477 1
17475 17478 1
17476 17481 1
17477 17479 1
17477 17480 1
17479 17481 1
17484 17487 1
17484 17488 1
17484 17492 1
17484 17495 1
17485 17489 1
17485 17490 1
17485 17493 1
17486 17491 1
17486 17492 1
17486 17495 1
17487 17489 1
17487 17490 1
17487 17494 1
17488 17493 1
17488 17494 1
17489 17491 1
17489 17492 1
17490 17495 1
17491 17493 1
17491 17494 1
17493 17495 1
17498 17501 1
17498 17502 1
17498 17506 1
17498 17509 1
17499 17503 1
17499 17504 1
17499 17507 1
17500 17505 1
17500 17506 1
17500 17509 1
17501 17503 1
17501 17504 1
17501 17508 1
17502 17507 1
17502 17508 1
17503 17505 1
17503 17506 1
17504 17509 1
17505 17507 1
17505 17508 1
17507 17509 1
17512 17515 1
17512 17516 1
17512 17520 1
17512 17523 1
17513 17517 1
17513 17518 1
17513 17521 1
17514 17519 1
17514 17520 1
17514 17523 1
17515 17517 1
17515 17518 1
17515 17522 1
17516 17521 1
17516 17522 1
17517 17519 1
17517 17520 1
17518 17523 1
17519 17521 1
17519 17522 1
17521 17523 1
17526 17529 1
17526 17530 1
17526 17534 1
17526 17537 1
17527 17531 1
17527 17532 1
17527 17535 1
17528 17533 1
17528 17534 1
17528 17537 1
17529 17531 1
17529 17532 1
17529 17536 1
17530 17535 1
17530 17536 1
17531 17533 1
17531 17534 1
17532 17537 1
17533 17535 1
17533 17536 1
17535 17537 1
17540 17543 1
17540 17544 1
17540 17548 1
17540 17551 1
17541 17545 1
17541 17546 1
17541 17549 1
17542 17547 1
17542 17548 1
17542 17551 1
17543 17545 1
17543 17546 1
17543 17550 1
17544 17549 1
17544 17550 1
17545 17547 1
17545 17548 1
17546 17551 1
17547 17549 1
17547 17550 1
17549 17551 1
17554 17557 1
17554 17558 1
17554 17562 1
17554 17565 1
17555 17559 1
17555 17560 1
17555 17563 1
17556 17561 1
17556 17562 1
17556 17565 1
17557 17559 1
17557 17560 1
17557 17564 1
17558 17563 1
17558 17564 1
17559 17561 1
17559 17562 1
17560 17565 1
17561 17563 1
17561 17564 1
17563 17565 1
17568 17571 1
17568 17572 1
17568 17576 1
17568 17579 1
17569 17573 1
17569 17574 1
17569 17577 1
17570 17575 1
17570 17576 1
17570 17579 1
17571 17573 1
17571 17574 1
17571 17578 1
17572 17577 1
17572 17578 1
17573 17575 1
17573 17576 1
17574 17579 1
17575 17577 1
17575 17578 1
17577 17579 1
17582 17585 1
17582 17586 1
17582 17590 1
17582 17593 1
17583 17587 1
17583 17588 1
17583 17591 1
17584 17589 1
17584 17590 1
17584 17593 1
17585 17587 1
17585 17588 1
17585 17592 1
17586 17591 1
17586 17592 1
17587 17589 1
17587 17590 1
17588 17593 1
17589 17591 1
17589 17592 1
17591 17593 1
17596 17599 1
17596 17600 1
17596 17604 1
17596 17607 1
17597 17601 1
17597 17602 1
17597 17605 1
17598 17603 1
17598 17604 1
17598 17607 1
17599 17601 1
17599 17602 1
17599 17606 1
17600 17605 1
17600 17606 1
17601 17603 1
17601 17604 1
17602 17607 1
17603 17605 1
17603 17606 1
17605 17607 1
17610 17613 1
17610 17614 1
17610 17618 1
17610 17621 1
17611 17615 1
17611 17616 1
17611 17619 1
17612 17617 1
17612 17618 1
17612 17621 1
17613 17615 1
17613 17616 1
17613 17620 1
17614 17619 1
17614 17620 1
17615 17617 1
17615 17618 1
17616 17621 1
17617 17619 1
17617 17620 1
17619 17621 1
17624 17627 1
17624 17628 1
17624 17632 1
17624 17635 1
17625 17629 1
17625 17630 1
17625 17633 1
17626 17631 1
17626 17632 1
17626 17635 1
17627 17629 1
17627 17630 1
17627 17634 1
17628 17633 1
17628 17634 1
17629 17631 1
17629 17632 1
17630 17635 1
17631 17633 1
17631 17634 1
17633 17635 1
17638 17641 1
17638 17642 1
17638 17646 1
17638 17649 1
17639 17643 1
17639 17644 1
17639 17647 1
17640 17645 1
17640 17646 1
17640 17649 1
17641 17643 1
17641 17644 1
17641 17648 1
17642 17647 1
17642 17648 1
17643 17645 1
17643 17646 1
17644 17649 1
17645 17647 1
17645 17648 1
17647 17649 1
17652 17655 1
17652 17656 1
17652 17660 1
17652 17663 1
17653 17657 1
17653 17658 1
17653 17661 1
17654 17659 1
17654 17660 1
17654 17663 1
17655 17657 1
17655 17658 1
17655 17662 1
17656 17661 1
17656 17662 1
17657 17659 1
17657 17660 1
17658 17663 1
17659 17661 1
17659 17662 1
17661 17663 1
17666 17669 1
17666 17670 1
17666 17674 1
17666 17677 1
17667 17671 1
17667 17672 1
17667 17675 1
17668 17673 1
17668 17674 1
17668 17677 1
17669 17671 1
17669 17672 1
17669 17676 1
17670 17675 1
17670 17676 1
17671 17673 1
17671 17674 1
17672 17677 1
17673 17675 1
17673 17676 1
17675 17677 1
17680 17683 1
17680 17684 1
17680 17688 1
17680 17691 1
17681 17685 1
17681 17686 1
17681 17689 1
17682 17687 1
17682 17688 1
17682 17691 1
17683 17685 1
17683 17686 1
17683 17690 1
17684 17689 1
17684 17690 1
17685 17687 1
17685 17688 1
17686 17691 1
17687 17689 1
17687 17690 1
17689 17691 1
17694 17697 1
17694 17698 1
17694 17702 1
17694 17705 1
17695 17699 1
17695 17700 1
17695 17703 1
17696 17701 1
17696 17702 1
17696 17705 1
17697 17699 1
17697 17700 1
17697 17704 1
17698 17703 1
17698 17704 1
17699 17701 1
17699 17702 1
17700 17705 1
17701 17703 1
17701 17704 1
17703 17705 1
17708 17711 1
17708 17712 1
17708 17716 1
17708 17719 1
17709 17713 1
17709 17714 1
17709 17717 1
17710 17715 1
17710 17716 1
17710 17719 1
17711 17713 1
17711 17714 1
17711 17718 1
17712 17717 1
17712 17718 1
17713 17715 1
17713 17716 1
17714 17719 1
17715 17717 1
17715 17718 1
17717 17719 1
17722 17725 1
17722 17726 1
17722 17730 1
17722 17733 1
17723 17727 1
17723 17728 1
17723 17731 1
17724 17729 1
17724 17730 1
17724 17733 1
17725 17727 1
17725 17728 1
17725 17732 1
17726 17731 1
17726 17732 1
17727 17729 1
17727 17730 1
17728 17733 1
17729 17731 1
17729 17732 1
17731 17733 1
17736 17739 1
17736 17740 1
17736 17744 1
17736 17747 1
17737 17741 1
17737 17742 1
17737 17745 1
17738 17743 1
17738 17744 1
17738 17747 1
17739 17741 1
17739 17742 1
17739 17746 1
17740 17745 1
17740 17746 1
17741 17743 1
17741 17744 1
17742 17747 1
17743 17745 1
17743 17746 1
17745 17747 1
17750 17753 1
17750 17754 1
17750 17758 1
17750 17761 1
17751 17755 1
17751 17756 1
17751 17759 1
17752 17757 1
17752 17758 1
17752 17761 1
17753 17755 1
17753 17756 1
17753 17760 1
17754 17759 1
17754 17760 1
17755 17757 1
17755 17758 1
17756 17761 1
17757 17759 1
17757 17760 1
17759 17761 1
17764 17767 1
17764 17768 1
17764 17772 1
17764 17775 1
17765 17769 1
17765 17770 1
17765 17773 1
17766 17771 1
17766 17772 1
17766 17775 1
17767 17769 1
17767 17770 1
17767 17774 1
17768 17773 1
17768 17774 1
17769 17771 1
17769 17772 1
17770 17775 1
17771 17773 1
17771 17774 1
17773 17775 1
17778 17781 1
17778 17782 1
17778 17786 1
17778 17789 1
17779 17783 1
17779 17784 1
17779 17787 1
17780 17785 1
17780 17786 1
17780 17789 1
17781 17783 1
17781 17784 1
17781 17788 1
17782 17787 1
17782 17788 1
17783 17785 1
17783 17786 1
17784 17789 1
17785 17787 1
17785 17788 1
17787 17789 1
17792 17795 1
17792 17796 1
17792 17800 1
17792 17803 1
17793 17797 1
17793 17798 1
17793 17801 1
17794 17799 1
17794 17800 1
17794 17803 1
17795 17797 1
17795 17798 1
17795 17802 1
17796 17801 1
17796 17802 1
17797 17799 1
17797 17800 1
17798 17803 1
17799 17801 1
17799 17802 1
17801 17803 1
17806 17809 1
17806 17810 1
17806 17814 1
17806 17817 1
17807 17811 1
17807 17812 1
17807 17815 1
17808 17813 1
17808 17814 1
17808 17817 1
17809 17811 1
17809 17812 1
17809 17816 1
17810 17815 1
17810 17816 1
17811 17813 1
17811 17814 1
17812 17817 1
17813 17815 1
17813 17816 1
17815 17817 1
17820 17823 1
17820 17824 1
17820 17828 1
17820 17831 1
17821 17825 1
17821 17826 1
17821 17829 1
17822 17827 1
17822 17828 1
17822 17831 1
17823 17825 1
17823 17826 1
17823 17830 1
17824 17829 1
17824 17830 1
17825 17827 1
17825 17828 1
17826 17831 1
17827 17829 1
17827 17830 1
17829 17831 1
17834 17837 1
17834 17838 1
17834 17842 1
17834 17845 1
17835 17839 1
17835 17840 1
17835 17843 1
17836 17841 1
17836 17842 1
17836 17845 1
17837 17839 1
17837 17840 1
17837 17844 1
17838 17843 1
17838 17844 1
17839 17841 1
17839 17842 1
17840 17845 1
17841 17843 1
17841 17844 1
17843 17845 1
17848 17851 1
17848 17852 1
17848 17856 1
17848 17859 1
17849 17853 1
17849 17854 1
17849 17857 1
17850 17855 1
17850 17856 1
17850 17859 1
17851 17853 1
17851 17854 1
17851 17858 1
17852 17857 1
17852 17858 1
17853 17855 1
17853 17856 1
17854 17859 1
17855 17857 1
17855 17858 1
17857 17859 1
17862 17865 1
17862 17866 1
17862 17870 1
17862 17873 1
17863 17867 1
17863 17868 1
17863 17871 1
17864 17869 1
17864 17870 1
17864 17873 1
17865 17867 1
17865 17868 1
17865 17872 1
17866 17871 1
17866 17872 1
17867 17869 1
17867 17870 1
17868 17873 1
17869 17871 1
17869 17872 1
17871 17873 1
17876 17879 1
17876 17880 1
17876 17884 1
17876 17887 1
17877 17881 1
17877 17882 1
17877 17885 1
17878 17883 1
17878 17884 1
17878 17887 1
17879 17881 1
17879 17882 1
17879 17886 1
17880 17885 1
17880 17886 1
17881 17883 1
17881 17884 1
17882 17887 1
17883 17885 1
17883 17886 1
17885 17887 1
17890 17893 1
17890 17894 1
17890 17898 1
17890 17901 1
17891 17895 1
17891 17896 1
17891 17899 1
17892 17897 1
17892 17898 1
17892 17901 1
17893 17895 1
17893 17896 1
17893 17900 1
17894 17899 1
17894 17900 1
17895 17897 1
17895 17898 1
17896 17901 1
17897 17899 1
17897 17900 1
17899 17901 1
17904 17907 1
17904 17908 1
17904 17912 1
17904 17915 1
17905 17909 1
17905 17910 1
17905 17913 1
17906 17911 1
17906 17912 1
17906 17915 1
17907 17909 1
17907 17910 1
17907 17914 1
17908 17913 1
17908 17914 1
17909 17911 1
17909 17912 1
17910 17915 1
17911 17913 1
17911 17914 1
17913 17915 1
17918 17921 1
17918 17922 1
17918 17926 1
17918 17929 1
17919 17923 1
17919 17924 1
17919 17927 1
17920 17925 1
17920 17926 1
17920 17929 1
17921 17923 1
17921 17924 1
17921 17928 1
17922 17927 1
17922 17928 1
17923 17925 1
17923 17926 1
17924 17929 1
17925 17927 1
17925 17928 1
17927 17929 1
17932 17935 1
17932 17936 1
17932 17940 1
17932 17943 1
17933 17937 1
17933 17938 1
17933 17941 1
17934 17939 1
17934 17940 1
17934 17943 1
17935 17937 1
17935 17938 1
17935 17942 1
17936 17941 1
17936 17942 1
17937 17939 1
17937 17940 1
17938 17943 1
17939 17941 1
17939 17942 1
17941 17943 1
17946 17949 1
17946 17950 1
17946 17954 1
17946 17957 1
17947 17951 1
17947 17952 1
17947 17955 1
17948 17953 1
17948 17954 1
17948 17957 1
17949 17951 1
17949 17952 1
17949 17956 1
17950 17955 1
17950 17956 1
17951 17953 1
17951 17954 1
17952 17957 1
17953 17955 1
17953 17956 1
17955 17957 1
17960 17963 1
17960 17964 1
17960 17968 1
17960 17971 1
17961 17965 1
17961 17966 1
17961 17969 1
17962 17967 1
17962 17968 1
17962 17971 1
17963 17965 1
17963 17966 1
17963 17970 1
17964 17969 1
17964 17970 1
17965 17967 1
17965 17968 1
17966 17971 1
17967 17969 1
17967 17970 1
17969 17971 1
17974 17977 1
17974 17978 1
17974 17982 1
17974 17985 1
17975 17979 1
17975 17980 1
17975 17983 1
17976 17981 1
17976 17982 1
17976 17985 1
17977 17979 1
17977 17980 1
17977 17984 1
17978 17983 1
17978 17984 1
17979 17981 1
17979 17982 1
17980 17985 1
17981 17983 1
17981 17984 1
17983 17985 1
17988 17991 1
17988 17992 1
17988 17996 1
17988 17999 1
17989 17993 1
17989 17994 1
17989 17997 1
17990 17995 1
17990 17996 1
17990 17999 1
17991 17993 1
17991 17994 1
17991 17998 1
17992 17997 1
17992 17998 1
17993 17995 1
17993 17996 1
17994 17999 1
17995 17997 1
17995 17998 1
17997 17999 1
18002 18005 1
18002 18006 1
18002 18010 1
18002 18013 1
18003 18007 1
18003 18008 1
18003 18011 1
18004 18009 1
18004 18010 1
18004 18013 1
18005 18007 1
18005 18008 1
18005 18012 1
18006 18011 1
18006 18012 1
18007 18009 1
18007 18010 1
18008 18013 1
18009 18011 1
18009 18012 1
18011 18013 1
18016 18019 1
18016 18020 1
18016 18024 1
18016 18027 1
18017 18021 1
18017 18022 1
18017 18025 1
18018 18023 1
18018 18024 1
18018 18027 1
18019 18021 1
18019 18022 1
18019 18026 1
18020 18025 1
18020 18026 1
18021 18023 1
18021 18024 1
18022 18027 1
18023 18025 1
18023 18026 1
18025 18027 1
18030 18033 1
18030 18034 1
18030 18038 1
18030 18041 1
18031 18035 1
18031 18036 1
18031 18039 1
18032 18037 1
18032 18038 1
18032 18041 1
18033 18035 1
18033 18036 1
18033 18040 1
18034 18039 1
18034 18040 1
18035 18037 1
18035 18038 1
18036 18041 1
18037 18039 1
18037 18040 1
18039 18041 1
18044 18047 1
18044 18048 1
18044 18052 1
18044 18055 1
18045 18049 1
18045 18050 1
18045 18053 1
18046 18051 1
18046 18052 1
18046 18055 1
18047 18049 1
18047 18050 1
18047 18054 1
18048 18053 1
18048 18054 1
18049 18051 1
18049 18052 1
18050 18055 1
18051 18053 1
18051 18054 1
18053 18055 1
18058 18061 1
18058 18062 1
18058 18066 1
18058 18069 1
18059 18063 1
18059 18064 1
18059 18067 1
18060 18065 1
18060 18066 1
18060 18069 1
18061 18063 1
18061 18064 1
18061 18068 1
18062 18067 1
18062 18068 1
18063 18065 1
18063 18066 1
18064 18069 1
18065 18067 1
18065 18068 1
18067 18069 1
18072 18075 1
18072 18076 1
18072 18080 1
18072 18083 1
18073 18077 1
18073 18078 1
18073 18081 1
18074 18079 1
18074 18080 1
18074 18083 1
18075 18077 1
18075 18078 1
18075 18082 1
18076 18081 1
18076 18082 1
18077 18079 1
18077 18080 1
18078 18083 1
18079 18081 1
18079 18082 1
18081 18083 1
18086 18089 1
18086 18090 1
18086 18094 1
18086 18097 1
18087 18091 1
18087 18092 1
18087 18095 1
18088 18093 1
18088 18094 1
18088 18097 1
18089 18091 1
18089 18092 1
18089 18096 1
18090 18095 1
18090 18096 1
18091 18093 1
18091 18094 1
18092 18097 1
18093 18095 1
18093 18096 1
18095 18097 1
18100 18103 1
18100 18104 1
18100 18108 1
18100 18111 1
18101 18105 1
18101 18106 1
18101 18109 1
18102 18107 1
18102 18108 1
18102 18111 1
18103 18105 1
18103 18106 1
18103 18110 1
18104 18109 1
18104 18110 1
18105 18107 1
18105 18108 1
18106 18111 1
18107 18109 1
18107 18110 1
18109 18111 1
18114 18117 1
18114 18118 1
18114 18122 1
18114 18125 1
18115 18119 1
18115 18120 1
18115 18123 1
18116 18121 1
18116 18122 1
18116 18125 1
18117 18119 1
18117 18120 1
18117 18124 1
18118 18123 1
18118 18124 1
18119 18121 1
18119 18122 1
18120 18125 1
18121 18123 1
18121 18124 1
18123 18125 1
18128 18131 1
18128 18132 1
18128 18136 1
18128 18139 1
18129 18133 1
18129 18134 1
18129 18137 1
18130 18135 1
18130 18136 1
18130 18139 1
18131 18133 1
18131 18134 1
18131 18138 1
18132 18137 1
18132 18138 1
18133 18135 1
18133 18136 1
18134 18139 1
18135 18137 1
18135 18138 1
18137 18139 1
18142 18145 1
18142 18146 1
18142 18150 1
18142 18153 1
18143 18147 1
18143 18148 1
18143 18151 1
18144 18149 1
18144 18150 1
18144 18153 1
18145 18147 1
18145 18148 1
18145 18152 1
18146 18151 1
18146 18152 1
18147 18149 1
18147 18150 1
18148 18153 1
18149 18151 1
18149 18152 1
18151 18153 1
18156 18159 1
18156 18160 1
18156 18164 1
18156 18167 1
18157 18161 1
18157 18162 1
18157 18165 1
18158 18163 1
18158 18164 1
18158 18167 1
18159 18161 1
18159 18162 1
18159 18166 1
18160 18165 1
18160 18166 1
18161 18163 1
18161 18164 1
18162 18167 1
18163 18165 1
18163 18166 1
18165 18167 1
18170 18173 1
18170 18174 1
18170 18178 1
18170 18181 1
18171 18175 1
18171 18176 1
18171 18179 1
18172 18177 1
18172 18178 1
18172 18181 1
18173 18175 1
18173 18176 1
18173 18180 1
18174 18179 1
18174 18180 1
18175 18177 1
18175 18178 1
18176 18181 1
18177 18179 1
18177 18180 1
18179 18181 1
18184 18187 1
18184 18188 1
18184 18192 1
18184 18195 1
18185 18189 1
18185 18190 1
18185 18193 1
18186 18191 1
18186 18192 1
18186 18195 1
18187 18189 1
18187 18190 1
18187 18194 1
18188 18193 1
18188 18194 1
18189 18191 1
18189 18192 1
18190 18195 1
18191 18193 1
18191 18194 1
18193 18195 1
18198 18201 1
18198 18202 1
18198 18206 1
18198 18209 1
18199 18203 1
18199 18204 1
18199 18207 1
18200 18205 1
18200 18206 1
18200 18209 1
18201 18203 1
18201 18204 1
18201 18208 1
18202 18207 1
18202 18208 1
18203 18205 1
18203 18206 1
18204 18209 1
18205 18207 1
18205 18208 1
18207 18209 1
18212 18215 1
18212 18216 1
18212 18220 1
18212 18223 1
18213 18217 1
18213 18218 1
18213 18221 1
18214 18219 1
18214 18220 1
18214 18223 1
18215 18217 1
18215 18218 1
18215 18222 1
18216 18221 1
18216 18222 1
18217 18219 1
18217 18220 1
18218 18223 1
18219 18221 1
18219 18222 1
18221 18223 1
18226 18229 1
18226 18230 1
18226 18234 1
18226 18237 1
18227 18231 1
18227 18232 1
18227 18235 1
18228 18233 1
18228 18234 1
18228 18237 1
18229 18231 1
18229 18232 1
18229 18236 1
18230 18235 1
18230 18236 1
18231 18233 1
18231 18234 1
18232 18237 1
18233 18235 1
18233 18236 1
18235 18237 1
18240 18243 1
18240 18244 1
18240 18248 1
18240 18251 1
18241 18245 1
18241 18246 1
18241 18249 1
18242 18247 1
18242 18248 1
18242 18251 1
18243 18245 1
18243 18246 1
18243 18250 1
18244 18249 1
18244 18250 1
18245 18247 1
18245 18248 1
18246 18251 1
18247 18249 1
18247 18250 1
18249 18251 1
18254 18257 1
18254 18258 1
18254 18262 1
18254 18265 1
18255 18259 1
18255 18260 1
18255 18263 1
18256 18261 1
18256 18262 1
18256 18265 1
18257 18259 1
18257 18260 1
18257 18264 1
18258 18263 1
18258 18264 1
18259 18261 1
18259 18262 1
18260 18265 1
18261 18263 1
18261 18264 1
18263 18265 1
18268 18271 1
18268 18272 1
18268 18276 1
18268 18279 1
18269 18273 1
18269 18274 1
18269 18277 1
18270 18275 1
18270 18276 1
18270 18279 1
18271 18273 1
18271 18274 1
18271 18278 1
18272 18277 1
18272 18278 1
18273 18275 1
18273 18276 1
18274 18279 1
18275 18277 1
18275 18278 1
18277 18279 1
18282 18285 1
18282 18286 1
18282 18290 1
18282 18293 1
18283 18287 1
18283 18288 1
18283 18291 1
18284 18289 1
18284 18290 1
18284 18293 1
18285 18287 1
18285 18288 1
18285 18292 1
18286 18291 1
18286 18292 1
18287 18289 1
18287 18290 1
18288 18293 1
18289 18291 1
18289 18292 1
18291 18293 1
18296 18299 1
18296 18300 1
18296 18304 1
18296 18307 1
18297 18301 1
18297 18302 1
18297 18305 1
18298 18303 1
18298 18304 1
18298 18307 1
18299 18301 1
18299 18302 1
18299 18306 1
18300 18305 1
18300 18306 1
18301 18303 1
18301 18304 1
18302 18307 1
18303 18305 1
18303 18306 1
18305 18307 1
18310 18313 1
18310 18314 1
18310 18318 1
18310 18321 1
18311 18315 1
18311 18316 1
18311 18319 1
18312 18317 1
18312 18318 1
18312 18321 1
18313 18315 1
18313 18316 1
18313 18320 1
18314 18319 1
18314 18320 1
18315 18317 1
18315 18318 1
18316 18321 1
18317 18319 1
18317 18320 1
18319 18321 1
18322 18325 1
18322 18326 1
18322 18330 1
18322 18333 1
18323 18327 1
18323 18328 1
18323 18331 1
18324 18329 1
18324 18330 1
18324 18333 1
18325 18327 1
18325 18328 1
18325 18332 1
18326 18331 1
18326 18332 1
18327 18329 1
18327 18330 1
18328 18333 1
18329 18331 1
18329 18332 1
18331 18333 1
18334 18337 1
18334 18338 1
18334 18342 1
18334 18345 1
18335 18339 1
18335 18340 1
18335 18343 1
18336 18341 1
18336 18342 1
18336 18345 1
18337 18339 1
18337 18340 1
18337 18344 1
18338 18343 1
18338 18344 1
18339 18341 1
18339 18342 1
18340 18345 1
18341 18343 1
18341 18344 1
18343 18345 1
18346 18349 1
18346 18350 1
18346 18354 1
18346 18357 1
18347 18351 1
18347 18352 1
18347 18355 1
18348 18353 1
18348 18354 1
18348 18357 1
18349 18351 1
18349 18352 1
18349 18356 1
18350 18355 1
18350 18356 1
18351 18353 1
18351 18354 1
18352 18357 1
18353 18355 1
18353 18356 1
18355 18357 1
18358 18361 1
18358 18362 1
18358 18366 1
18358 18369 1
18359 18363 1
18359 18364 1
18359 18367 1
18360 18365 1
18360 18366 1
18360 18369 1
18361 18363 1
18361 18364 1
18361 18368 1
18362 18367 1
18362 18368 1
18363 18365 1
18363 18366 1
18364 18369 1
18365 18367 1
18365 18368 1
18367 18369 1
18370 18373 1
18370 18374 1
18370 18378 1
18370 18381 1
18371 18375 1
18371 18376 1
18371 18379 1
18372 18377 1
18372 18378 1
18372 18381 1
18373 18375 1
18373 18376 1
18373 18380 1
18374 18379 1
18374 18380 1
18375 18377 1
18375 18378 1
18376 18381 1
18377 18379 1
18377 18380 1
18379 18381 1
18382 18385 1
18382 18386 1
18382 18390 1
18382 18393 1
18383 18387 1
18383 18388 1
18383 18391 1
18384 18389 1
18384 18390 1
18384 18393 1
18385 18387 1
18385 18388 1
18385 18392 1
18386 18391 1
18386 18392 1
18387 18389 1
18387 18390 1
18388 18393 1
18389 18391 1
18389 18392 1
18391 18393 1
18394 18397 1
18394 18398 1
18394 18402 1
18394 18405 1
18395 18399 1
18395 18400 1
18395 18403 1
18396 18401 1
18396 18402 1
18396 18405 1
18397 18399 1
18397 18400 1
18397 18404 1
18398 18403 1
18398 18404 1
18399 18401 1
18399 18402 1
18400 18405 1
18401 18403 1
18401 18404 1
18403 18405 1
18406 18409 1
18406 18410 1
18406 18414 1
18406 18417 1
18407 18411 1
18407 18412 1
18407 18415 1
18408 18413 1
18408 18414 1
18408 18417 1
18409 18411 1
18409 18412 1
18409 18416 1
18410 18415 1
18410 18416 1
18411 18413 1
18411 18414 1
18412 18417 1
18413 18415 1
18413 18416 1
18415 18417 1
18418 18421 1
18418 18422 1
18418 18426 1
18418 18429 1
18419 18423 1
18419 18424 1
18419 18427 1
18420 18425 1
18420 18426 1
18420 18429 1
18421 18423 1
18421 18424 1
18421 18428 1
18422 18427 1
18422 18428 1
18423 18425 1
18423 18426 1
18424 18429 1
18425 18427 1
18425 18428 1
18427 18429 1
18430 18433 1
18430 18434 1
18430 18438 1
18430 18441 1
18431 18435 1
18431 18436 1
18431 18439 1
18432 18437 1
18432 18438 1
18432 18441 1
18433 18435 1
18433 18436 1
18433 18440 1
18434 18439 1
18434 18440 1
18435 18437 1
18435 18438 1
18436 18441 1
18437 18439 1
18437 18440 1
18439 18441 1
18442 18445 1
18442 18446 1
18442 18450 1
18442 18453 1
18443 18447 1
18443 18448 1
18443 18451 1
18444 18449 1
18444 18450 1
18444 18453 1
18445 18447 1
18445 18448 1
18445 18452 1
18446 18451 1
18446 18452 1
18447 18449 1
18447 18450 1
18448 18453 1
18449 18451 1
18449 18452 1
18451 18453 1
18454 18457 1
18454 18458 1
18454 18462 1
18454 18465 1
18455 18459 1
18455 18460 1
18455 18463 1
18456 18461 1
18456 18462 1
18456 18465 1
18457 18459 1
18457 18460 1
18457 18464 1
18458 18463 1
18458 18464 1
18459 18461 1
18459 18462 1
18460 18465 1
18461 18463 1
18461 18464 1
18463 18465 1
18466 18469 1
18466 18470 1
18466 18474 1
18466 18477 1
18467 18471 1
18467 18472 1
18467 18475 1
18468 18473 1
18468 18474 1
18468 18477 1
18469 18471 1
18469 18472 1
18469 18476 1
18470 18475 1
18470 18476 1
18471 18473 1
18471 18474 1
18472 18477 1
18473 18475 1
18473 18476 1
18475 18477 1
18478 18481 1
18478 18482 1
18478 18486 1
18478 18489 1
18479 18483 1
18479 18484 1
18479 18487 1
18480 18485 1
18480 18486 1
18480 18489 1
18481 18483 1
18481 18484 1
18481 18488 1
18482 18487 1
18482 18488 1
18483 18485 1
18483 18486 1
18484 18489 1
18485 18487 1
18485 18488 1
18487 18489 1
18490 18493 1
18490 18494 1
18490 18498 1
18490 18501 1
18491 18495 1
18491 18496 1
18491 18499 1
18492 18497 1
18492 18498 1
18492 18501 1
18493 18495 1
18493 18496 1
18493 18500 1
18494 18499 1
18494 18500 1
18495 18497 1
18495 18498 1
18496 18501 1
18497 18499 1
18497 18500 1
18499 18501 1
18502 18505 1
18502 18506 1
18502 18510 1
18502 18513 1
18503 18507 1
18503 18508 1
18503 18511 1
18504 18509 1
18504 18510 1
18504 18513 1
18505 18507 1
18505 18508 1
18505 18512 1
18506 18511 1
18506 18512 1
18507 18509 1
18507 18510 1
18508 18513 1
18509 18511 1
18509 18512 1
18511 18513 1
18514 18517 1
18514 18518 1
18514 18522 1
18514 18525 1
18515 18519 1
18515 18520 1
18515 18523 1
18516 18521 1
18516 18522 1
18516 18525 1
18517 18519 1
18517 18520 1
18517 18524 1
18518 18523 1
18518 18524 1
18519 18521 1
18519 18522 1
18520 18525 1
18521 18523 1
18521 18524 1
18523 18525 1
18526 18529 1
18526 18530 1
18526 18534 1
18526 18537 1
18527 18531 1
18527 18532 1
18527 18535 1
18528 18533 1
18528 18534 1
18528 18537 1
18529 18531 1
18529 18532 1
18529 18536 1
18530 18535 1
18530 18536 1
18531 18533 1
18531 18534 1
18532 18537 1
18533 18535 1
18533 18536 1
18535 18537 1
18538 18541 1
18538 18542 1
18538 18546 1
18538 18549 1
18539 18543 1
18539 18544 1
18539 18547 1
18540 18545 1
18540 18546 1
18540 18549 1
18541 18543 1
18541 18544 1
18541 18548 1
18542 18547 1
18542 18548 1
18543 18545 1
18543 18546 1
18544 18549 1
18545 18547 1
18545 18548 1
18547 18549 1
18550 18553 1
18550 18554 1
18550 18558 1
18550 18561 1
18551 18555 1
18551 18556 1
18551 18559 1
18552 18557 1
18552 18558 1
18552 18561 1
18553 18555 1
18553 18556 1
18553 18560 1
18554 18559 1
18554 18560 1
18555 18557 1
18555 18558 1
18556 18561 1
18557 18559 1
18557 18560 1
18559 18561 1
18562 18565 1
18562 18566 1
18562 18570 1
18562 18573 1
18563 18567 1
18563 18568 1
18563 18571 1
18564 18569 1
18564 18570 1
18564 18573 1
18565 18567 1
18565 18568 1
18565 18572 1
18566 18571 1
18566 18572 1
18567 18569 1
18567 18570 1
18568 18573 1
18569 18571 1
18569 18572 1
18571 18573 1
18574 18577 1
18574 18578 1
18574 18582 1
18574 18585 1
18575 18579 1
18575 18580 1
18575 18583 1
18576 18581 1
18576 18582 1
18576 18585 1
18577 18579 1
18577 18580 1
18577 18584 1
18578 18583 1
18578 18584 1
18579 18581 1
18579 18582 1
18580 18585 1
18581 18583 1
18581 18584 1
18583 18585 1
18586 18589 1
18586 18590 1
18586 18594 1
18586 18597 1
18587 18591 1
18587 18592 1
18587 18595 1
18588 18593 1
18588 18594 1
18588 18597 1
18589 18591 1
18589 18592 1
18589 18596 1
18590 18595 1
18590 18596 1
18591 18593 1
18591 18594 1
18592 18597 1
18593 18595 1
18593 18596 1
18595 18597 1
18598 18601 1
18598 18602 1
18598 18606 1
18598 18609 1
18599 18603 1
18599 18604 1
18599 18607 1
18600 18605 1
18600 18606 1
18600 18609 1
18601 18603 1
18601 18604 1
18601 18608 1
18602 18607 1
18602 18608 1
18603 18605 1
18603 18606 1
18604 18609 1
18605 18607 1
18605 18608 1
18607 18609 1
18610 18613 1
18610 18614 1
18610 18618 1
18610 18621 1
18611 18615 1
18611 18616 1
18611 18619 1
18612 18617 1
18612 18618 1
18612 18621 1
18613 18615 1
18613 18616 1
18613 18620 1
18614 18619 1
18614 18620 1
18615 18617 1
18615 18618 1
18616 18621 1
18617 18619 1
18617 18620 1
18619 18621 1
18622 18625 1
18622 18626 1
18622 18630 1
18622 18633 1
18623 18627 1
18623 18628 1
18623 18631 1
18624 18629 1
18624 18630 1
18624 18633 1
18625 18627 1
18625 18628 1
18625 18632 1
18626 18631 1
18626 18632 1
18627 18629 1
18627 18630 1
18628 18633 1
18629 18631 1
18629 18632 1
18631 18633 1
18634 18637 1
18634 18638 1
18634 18642 1
18634 18645 1
18635 18639 1
18635 18640 1
18635 18643 1
18636 18641 1
18636 18642 1
18636 18645 1
18637 18639 1
18637 18640 1
18637 18644 1
18638 18643 1
18638 18644 1
18639 18641 1
18639 18642 1
18640 18645 1
18641 18643 1
18641 18644 1
18643 18645 1
18646 18649 1
18646 18650 1
18646 18654 1
18646 18657 1
18647 18651 1
18647 18652 1
18647 18655 1
18648 18653 1
18648 18654 1
18648 18657 1
18649 18651 1
18649 18652 1
18649 18656 1
18650 18655 1
18650 18656 1
18651 18653 1
18651 18654 1
18652 18657 1
18653 18655 1
18653 18656 1
18655 18657 1
18658 18661 1
18658 18662 1
18658 18666 1
18658 18669 1
18659 18663 1
18659 18664 1
18659 18667 1
18660 18665 1
18660 18666 1
18660 18669 1
18661 18663 1
18661 18664 1
18661 18668 1
18662 18667 1
18662 18668 1
18663 18665 1
18663 18666 1
18664 18669 1
18665 18667 1
18665 18668 1
18667 18669 1
18670 18673 1
18670 18674 1
18670 18678 1
18670 18681 1
18671 18675 1
18671 18676 1
18671 18679 1
18672 18677 1
18672 18678 1
18672 18681 1
18673 18675 1
18673 18676 1
18673 18680 1
18674 18679 1
18674 18680 1
18675 18677 1
18675 18678 1
18676 18681 1
18677 18679 1
18677 18680 1
18679 18681 1
18682 18685 1
18682 18686 1
18682 18690 1
18682 18693 1
18683 18687 1
18683 18688 1
18683 18691 1
18684 18689 1
18684 18690 1
18684 18693 1
18685 18687 1
18685 18688 1
18685 18692 1
18686 18691 1
18686 18692 1
18687 18689 1
18687 18690 1
18688 18693 1
18689 18691 1
18689 18692 1
18691 18693 1
18694 18697 1
18694 18698 1
18694 18702 1
18694 18705 1
18695 18699 1
18695 18700 1
18695 18703 1
18696 18701 1
18696 18702 1
18696 18705 1
18697 18699 1
18697 18700 1
18697 18704 1
18698 18703 1
18698 18704 1
18699 18701 1
18699 18702 1
18700 18705 1
18701 18703 1
18701 18704 1
18703 18705 1
18706 18709 1
18706 18710 1
18706 18714 1
18706 18717 1
18707 18711 1
18707 18712 1
18707 18715 1
18708 18713 1
18708 18714 1
18708 18717 1
18709 18711 1
18709 18712 1
18709 18716 1
18710 18715 1
18710 18716 1
18711 18713 1
18711 18714 1
18712 18717 1
18713 18715 1
18713 18716 1
18715 18717 1
18718 18721 1
18718 18722 1
18718 18726 1
18718 18729 1
18719 18723 1
18719 18724 1
18719 18727 1
18720 18725 1
18720 18726 1
18720 18729 1
18721 18723 1
18721 18724 1
18721 18728 1
18722 18727 1
18722 18728 1
18723 18725 1
18723 18726 1
18724 18729 1
18725 18727 1
18725 18728 1
18727 18729 1
18730 18733 1
18730 18734 1
18730 18738 1
18730 18741 1
18731 18735 1
18731 18736 1
18731 18739 1
18732 18737 1
18732 18738 1
18732 18741 1
18733 18735 1
18733 18736 1
18733 18740 1
18734 18739 1
18734 18740 1
18735 18737 1
18735 18738 1
18736 18741 1
18737 18739 1
18737 18740 1
18739 18741 1
18742 18745 1
18742 18746 1
18742 18750 1
18742 18753 1
18743 18747 1
18743 18748 1
18743 18751 1
18744 18749 1
18744 18750 1
18744 18753 1
18745 18747 1
18745 18748 1
18745 18752 1
18746 18751 1
18746 18752 1
18747 18749 1
18747 18750 1
18748 18753 1
18749 18751 1
18749 18752 1
18751 18753 1
18754 18757 1
18754 18758 1
18754 18762 1
18754 18765 1
18755 18759 1
18755 18760 1
18755 18763 1
18756 18761 1
18756 18762 1
18756 18765 1
18757 18759 1
18757 18760 1
18757 18764 1
18758 18763 1
18758 18764 1
18759 18761 1
18759 18762 1
18760 18765 1
18761 18763 1
18761 18764 1
18763 18765 1
18766 18769 1
18766 18770 1
18766 18774 1
18766 18777 1
18767 18771 1
18767 18772 1
18767 18775 1
18768 18773 1
18768 18774 1
18768 18777 1
18769 18771 1
18769 18772 1
18769 18776 1
18770 18775 1
18770 18776 1
18771 18773 1
18771 18774 1
18772 18777 1
18773 18775 1
18773 18776 1
18775 18777 1
18778 18781 1
18778 18782 1
18778 18786 1
18778 18789 1
18779 18783 1
18779 18784 1
18779 18787 1
18780 18785 1
18780 18786 1
18780 18789 1
18781 18783 1
18781 18784 1
18781 18788 1
18782 18787 1
18782 18788 1
18783 18785 1
18783 18786 1
18784 18789 1
18785 18787 1
18785 18788 1
18787 18789 1
18790 18793 1
18790 18794 1
18790 18798 1
18790 18801 1
18791 18795 1
18791 18796 1
18791 18799 1
18792 18797 1
18792 18798 1
18792 18801 1
18793 18795 1
18793 18796 1
18793 18800 1
18794 18799 1
18794 18800 1
18795 18797 1
18795 18798 1
18796 18801 1
18797 18799 1
18797 18800 1
18799 18801 1
18802 18805 1
18802 18806 1
18802 18810 1
18802 18813 1
18803 18807 1
18803 18808 1
18803 18811 1
18804 18809 1
18804 18810 1
18804 18813 1
18805 18807 1
18805 18808 1
18805 18812 1
18806 18811 1
18806 18812 1
18807 18809 1
18807 18810 1
18808 18813 1
18809 18811 1
18809 18812 1
18811 18813 1
18814 18817 1
18814 18818 1
18814 18822 1
18814 18825 1
18815 18819 1
18815 18820 1
18815 18823 1
18816 18821 1
18816 18822 1
18816 18825 1
18817 18819 1
18817 18820 1
18817 18824 1
18818 18823 1
18818 18824 1
18819 18821 1
18819 18822 1
18820 18825 1
18821 18823 1
18821 18824 1
18823 18825 1
18826 18829 1
18826 18830 1
18826 18834 1
18826 18837 1
18827 18831 1
18827 18832 1
18827 18835 1
18828 18833 1
18828 18834 1
18828 18837 1
18829 18831 1
18829 18832 1
18829 18836 1
18830 18835 1
18830 18836 1
18831 18833 1
18831 18834 1
18832 18837 1
18833 18835 1
18833 18836 1
18835 18837 1
18838 18841 1
18838 18842 1
18838 18846 1
18838 18849 1
18839 18843 1
18839 18844 1
18839 18847 1
18840 18845 1
18840 18846 1
18840 18849 1
18841 18843 1
18841 18844 1
18841 18848 1
18842 18847 1
18842 18848 1
18843 18845 1
18843 18846 1
18844 18849 1
18845 18847 1
18845 18848 1
18847 18849 1
18850 18853 1
18850 18854 1
18850 18858 1
18850 18861 1
18851 18855 1
18851 18856 1
18851 18859 1
18852 18857 1
18852 18858 1
18852 18861 1
18853 18855 1
18853 18856 1
18853 18860 1
18854 18859 1
18854 18860 1
18855 18857 1
18855 18858 1
18856 18861 1
18857 18859 1
18857 18860 1
18859 18861 1
18862 18865 1
18862 18866 1
18862 18870 1
18862 18873 1
18863 18867 1
18863 18868 1
18863 18871 1
18864 18869 1
18864 18870 1
18864 18873 1
18865 18867 1
18865 18868 1
18865 18872 1
18866 18871 1
18866 18872 1
18867 18869 1
18867 18870 1
18868 18873 1
18869 18871 1
18869 18872 1
18871 18873 1
18874 18877 1
18874 18878 1
18874 18882 1
18874 18885 1
18875 18879 1
18875 18880 1
18875 18883 1
18876 18881 1
18876 18882 1
18876 18885 1
18877 18879 1
18877 18880 1
18877 18884 1
18878 18883 1
18878 18884 1
18879 18881 1
18879 18882 1
18880 18885 1
18881 18883 1
18881 18884 1
18883 18885 1
18886 18889 1
18886 18890 1
18886 18894 1
18886 18897 1
18887 18891 1
18887 18892 1
18887 18895 1
18888 18893 1
18888 18894 1
18888 18897 1
18889 18891 1
18889 18892 1
18889 18896 1
18890 18895 1
18890 18896 1
18891 18893 1
18891 18894 1
18892 18897 1
18893 18895 1
18893 18896 1
18895 18897 1
18898 18901 1
18898 18902 1
18898 18906 1
18898 18909 1
18899 18903 1
18899 18904 1
18899 18907 1
18900 18905 1
18900 18906 1
18900 18909 1
18901 18903 1
18901 18904 1
18901 18908 1
18902 18907 1
18902 18908 1
18903 18905 1
18903 18906 1
18904 18909 1
18905 18907 1
18905 18908 1
18907 18909 1
18910 18913 1
18910 18914 1
18910 18918 1
18910 18921 1
18911 18915 1
18911 18916 1
18911 18919 1
18912 18917 1
18912 18918 1
18912 18921 1
18913 18915 1
18913 18916 1
18913 18920 1
18914 18919 1
18914 18920 1
18915 18917 1
18915 18918 1
18916 18921 1
18917 18919 1
18917 18920 1
18919 18921 1
18922 18925 1
18922 18926 1
18922 18930 1
18922 18933 1
18923 18927 1
18923 18928 1
18923 18931 1
18924 18929 1
18924 18930 1
18924 18933 1
18925 18927 1
18925 18928 1
18925 18932 1
18926 18931 1
18926 18932 1
18927 18929 1
18927 18930 1
18928 18933 1
18929 18931 1
18929 18932 1
18931 18933 1
18934 18937 1
18934 18938 1
18934 18942 1
18934 18945 1
18935 18939 1
18935 18940 1
18935 18943 1
18936 18941 1
18936 18942 1
18936 18945 1
18937 18939 1
18937 18940 1
18937 18944 1
18938 18943 1
18938 18944 1
18939 18941 1
18939 18942 1
18940 18945 1
18941 18943 1
18941 18944 1
18943 18945 1
18946 18949 1
18946 18950 1
18946 18954 1
18946 18957 1
18947 18951 1
18947 18952 1
18947 18955 1
18948 18953 1
18948 18954 1
18948 18957 1
18949 18951 1
18949 18952 1
18949 18956 1
18950 18955 1
18950 18956 1
18951 18953 1
18951 18954 1
18952 18957 1
18953 18955 1
18953 18956 1
18955 18957 1
18958 18961 1
18958 18962 1
18958 18966 1
18958 18969 1
18959 18963 1
18959 18964 1
18959 18967 1
18960 18965 1
18960 18966 1
18960 18969 1
18961 18963 1
18961 18964 1
18961 18968 1
18962 18967 1
18962 18968 1
18963 18965 1
18963 18966 1
18964 18969 1
18965 18967 1
18965 18968 1
18967 18969 1
18970 18973 1
18970 18974 1
18970 18978 1
18970 18981 1
18971 18975 1
18971 18976 1
18971 18979 1
18972 18977 1
18972 18978 1
18972 18981 1
18973 18975 1
18973 18976 1
18973 18980 1
18974 18979 1
18974 18980 1
18975 18977 1
18975 18978 1
18976 18981 1
18977 18979 1
18977 18980 1
18979 18981 1
18982 18985 1
18982 18986 1
18982 18990 1
18982 18993 1
18983 18987 1
18983 18988 1
18983 18991 1
18984 18989 1
18984 18990 1
18984 18993 1
18985 18987 1
18985 18988 1
18985 18992 1
18986 18991 1
18986 18992 1
18987 18989 1
18987 18990 1
18988 18993 1
18989 18991 1
18989 18992 1
18991 18993 1
18994 18997 1
18994 18998 1
18994 19002 1
18994 19005 1
18995 18999 1
18995 19000 1
18995 19003 1
18996 19001 1
18996 19002 1
18996 19005 1
18997 18999 1
18997 19000 1
18997 19004 1
18998 19003 1
18998 19004 1
18999 19001 1
18999 19002 1
19000 19005 1
19001 19003 1
19001 19004 1
19003 19005 1
19006 19009 1
19006 19010 1
19006 19014 1
19006 19017 1
19007 19011 1
19007 19012 1
19007 19015 1
19008 19013 1
19008 19014 1
19008 19017 1
19009 19011 1
19009 19012 1
19009 19016 1
19010 19015 1
19010 19016 1
19011 19013 1
19011 19014 1
19012 19017 1
19013 19015 1
19013 19016 1
19015 19017 1
19018 19021 1
19018 19022 1
19018 19026 1
19018 19029 1
19019 19023 1
19019 19024 1
19019 19027 1
19020 19025 1
19020 19026 1
19020 19029 1
19021 19023 1
19021 19024 1
19021 19028 1
19022 19027 1
19022 19028 1
19023 19025 1
19023 19026 1
19024 19029 1
19025 19027 1
19025 19028 1
19027 19029 1
19030 19033 1
19030 19034 1
19030 19038 1
19030 19041 1
19031 19035 1
19031 19036 1
19031 19039 1
19032 19037 1
19032 19038 1
19032 19041 1
19033 19035 1
19033 19036 1
19033 19040 1
19034 19039 1
19034 19040 1
19035 19037 1
19035 19038 1
19036 19041 1
19037 19039 1
19037 19040 1
19039 19041 1
19042 19045 1
19042 19046 1
19042 19050 1
19042 19053 1
19043 19047 1
19043 19048 1
19043 19051 1
19044 19049 1
19044 19050 1
19044 19053 1
19045 19047 1
19045 19048 1
19045 19052 1
19046 19051 1
19046 19052 1
19047 19049 1
19047 19050 1
19048 19053 1
19049 19051 1
19049 19052 1
19051 19053 1
19054 19057 1
19054 19058 1
19054 19062 1
19054 19065 1
19055 19059 1
19055 19060 1
19055 19063 1
19056 19061 1
19056 19062 1
19056 19065 1
19057 19059 1
19057 19060 1
19057 19064 1
19058 19063 1
19058 19064 1
19059 19061 1
19059 19062 1
19060 19065 1
19061 19063 1
19061 19064 1
19063 19065 1
19066 19069 1
19066 19070 1
19066 19074 1
19066 19077 1
19067 19071 1
19067 19072 1
19067 19075 1
19068 19073 1
19068 19074 1
19068 19077 1
19069 19071 1
19069 19072 1
19069 19076 1
19070 19075 1
19070 19076 1
19071 19073 1
19071 19074 1
19072 19077 1
19073 19075 1
19073 19076 1
19075 19077 1
19078 19081 1
19078 19082 1
19078 19086 1
19078 19089 1
19079 19083 1
19079 19084 1
19079 19087 1
19080 19085 1
19080 19086 1
19080 19089 1
19081 19083 1
19081 19084 1
19081 19088 1
19082 19087 1
19082 19088 1
19083 19085 1
19083 19086 1
19084 19089 1
19085 19087 1
19085 19088 1
19087 19089 1
19090 19093 1
19090 19094 1
19090 19098 1
19090 19101 1
19091 19095 1
19091 19096 1
19091 19099 1
19092 19097 1
19092 19098 1
19092 19101 1
19093 19095 1
19093 19096 1
19093 19100 1
19094 19099 1
19094 19100 1
19095 19097 1
19095 19098 1
19096 19101 1
19097 19099 1
19097 19100 1
19099 19101 1
19102 19105 1
19102 19106 1
19102 19110 1
19102 19113 1
19103 19107 1
19103 19108 1
19103 19111 1
19104 19109 1
19104 19110 1
19104 19113 1
19105 19107 1
19105 19108 1
19105 19112 1
19106 19111 1
19106 19112 1
19107 19109 1
19107 19110 1
19108 19113 1
19109 19111 1
19109 19112 1
19111 19113 1
19114 19117 1
19114 19118 1
19114 19122 1
19114 19125 1
19115 19119 1
19115 19120 1
19115 19123 1
19116 19121 1
19116 19122 1
19116 19125 1
19117 19119 1
19117 19120 1
19117 19124 1
19118 19123 1
19118 19124 1
19119 19121 1
19119 19122 1
19120 19125 1
19121 19123 1
19121 19124 1
19123 19125 1
19126 19129 1
19126 19130 1
19126 19134 1
19126 19137 1
19127 19131 1
19127 19132 1
19127 19135 1
19128 19133 1
19128 19134 1
19128 19137 1
19129 19131 1
19129 19132 1
19129 19136 1
19130 19135 1
19130 19136 1
19131 19133 1
19131 19134 1
19132 19137 1
19133 19135 1
19133 19136 1
19135 19137 1
19138 19141 1
19138 19142 1
19138 19146 1
19138 19149 1
19139 19143 1
19139 19144 1
19139 19147 1
19140 19145 1
19140 19146 1
19140 19149 1
19141 19143 1
19141 19144 1
19141 19148 1
19142 19147 1
19142 19148 1
19143 19145 1
19143 19146 1
19144 19149 1
19145 19147 1
19145 19148 1
19147 19149 1
19150 19153 1
19150 19154 1
19150 19158 1
19150 19161 1
19151 19155 1
19151 19156 1
19151 19159 1
19152 19157 1
19152 19158 1
19152 19161 1
19153 19155 1
19153 19156 1
19153 19160 1
19154 19159 1
19154 19160 1
19155 19157 1
19155 19158 1
19156 19161 1
19157 19159 1
19157 19160 1
19159 19161 1
19162 19165 1
19162 19166 1
19162 19170 1
19162 19173 1
19163 19167 1
19163 19168 1
19163 19171 1
19164 19169 1
19164 19170 1
19164 19173 1
19165 19167 1
19165 19168 1
19165 19172 1
19166 19171 1
19166 19172 1
19167 19169 1
19167 19170 1
19168 19173 1
19169 19171 1
19169 19172 1
19171 19173 1
19174 19177 1
19174 19178 1
19174 19182 1
19174 19185 1
19175 19179 1
19175 19180 1
19175 19183 1
19176 19181 1
19176 19182 1
19176 19185 1
19177 19179 1
19177 19180 1
19177 19184 1
19178 19183 1
19178 19184 1
19179 19181 1
19179 19182 1
19180 19185 1
19181 19183 1
19181 19184 1
19183 19185 1
19186 19189 1
19186 19190 1
19186 19194 1
19186 19197 1
19187 19191 1
19187 19192 1
19187 19195 1
19188 19193 1
19188 19194 1
19188 19197 1
19189 19191 1
19189 19192 1
19189 19196 1
19190 19195 1
19190 19196 1
19191 19193 1
19191 19194 1
19192 19197 1
19193 19195 1
19193 19196 1
19195 19197 1
19198 19201 1
19198 19202 1
19198 19206 1
19198 19209 1
19199 19203 1
19199 19204 1
19199 19207 1
19200 19205 1
19200 19206 1
19200 19209 1
19201 19203 1
19201 19204 1
19201 19208 1
19202 19207 1
19202 19208 1
19203 19205 1
19203 19206 1
19204 19209 1
19205 19207 1
19205 19208 1
19207 19209 1
19210 19213 1
19210 19214 1
19210 19218 1
19210 19221 1
19211 19215 1
19211 19216 1
19211 19219 1
19212 19217 1
19212 19218 1
19212 19221 1
19213 19215 1
19213 19216 1
19213 19220 1
19214 19219 1
19214 19220 1
19215 19217 1
19215 19218 1
19216 19221 1
19217 19219 1
19217 19220 1
19219 19221 1
19222 19225 1
19222 19226 1
19222 19230 1
19222 19233 1
19223 19227 1
19223 19228 1
19223 19231 1
19224 19229 1
19224 19230 1
19224 19233 1
19225 19227 1
19225 19228 1
19225 19232 1
19226 19231 1
19226 19232 1
19227 19229 1
19227 19230 1
19228 19233 1
19229 19231 1
19229 19232 1
19231 19233 1
19234 19237 1
19234 19238 1
19234 19242 1
19234 19245 1
19235 19239 1
19235 19240 1
19235 19243 1
19236 19241 1
19236 19242 1
19236 19245 1
19237 19239 1
19237 19240 1
19237 19244 1
19238 19243 1
19238 19244 1
19239 19241 1
19239 19242 1
19240 19245 1
19241 19243 1
19241 19244 1
19243 19245 1
19246 19249 1
19246 19250 1
19246 19254 1
19246 19257 1
19247 19251 1
19247 19252 1
19247 19255 1
19248 19253 1
19248 19254 1
19248 19257 1
19249 19251 1
19249 19252 1
19249 19256 1
19250 19255 1
19250 19256 1
19251 19253 1
19251 19254 1
19252 19257 1
19253 19255 1
19253 19256 1
19255 19257 1
19258 19261 1
19258 19262 1
19258 19266 1
19258 19269 1
19259 19263 1
19259 19264 1
19259 19267 1
19260 19265 1
19260 19266 1
19260 19269 1
19261 19263 1
19261 19264 1
19261 19268 1
19262 19267 1
19262 19268 1
19263 19265 1
19263 19266 1
19264 19269 1
19265 19267 1
19265 19268 1
19267 19269 1
19270 19273 1
19270 19274 1
19270 19278 1
19270 19281 1
19271 19275 1
19271 19276 1
19271 19279 1
19272 19277 1
19272 19278 1
19272 19281 1
19273 19275 1
19273 19276 1
19273 19280 1
19274 19279 1
19274 19280 1
19275 19277 1
19275 19278 1
19276 19281 1
19277 19279 1
19277 19280 1
19279 19281 1
19282 19285 1
19282 19286 1
19282 19290 1
19282 19293 1
19283 19287 1
19283 19288 1
19283 19291 1
19284 19289 1
19284 19290 1
19284 19293 1
19285 19287 1
19285 19288 1
19285 19292 1
19286 19291 1
19286 19292 1
19287 19289 1
19287 19290 1
19288 19293 1
19289 19291 1
19289 19292 1
19291 19293 1
19294 19297 1
19294 19298 1
19294 19302 1
19294 19305 1
19295 19299 1
19295 19300 1
19295 19303 1
19296 19301 1
19296 19302 1
19296 19305 1
19297 19299 1
19297 19300 1
19297 19304 1
19298 19303 1
19298 19304 1
19299 19301 1
19299 19302 1
19300 19305 1
19301 19303 1
19301 19304 1
19303 19305 1
19306 19309 1
19306 19310 1
19306 19314 1
19306 19317 1
19307 19311 1
19307 19312 1
19307 19315 1
19308 19313 1
19308 19314 1
19308 19317 1
19309 19311 1
19309 19312 1
19309 19316 1
19310 19315 1
19310 19316 1
19311 19313 1
19311 19314 1
19312 19317 1
19313 19315 1
19313 19316 1
19315 19317 1
19318 19321 1
19318 19322 1
19318 19326 1
19318 19329 1
19319 19323 1
19319 19324 1
19319 19327 1
19320 19325 1
19320 19326 1
19320 19329 1
19321 19323 1
19321 19324 1
19321 19328 1
19322 19327 1
19322 19328 1
19323 19325 1
19323 19326 1
19324 19329 1
19325 19327 1
19325 19328 1
19327 19329 1
19330 19333 1
19330 19334 1
19330 19338 1
19330 19341 1
19331 19335 1
19331 19336 1
19331 19339 1
19332 19337 1
19332 19338 1
19332 19341 1
19333 19335 1
19333 19336 1
19333 19340 1
19334 19339 1
19334 19340 1
19335 19337 1
19335 19338 1
19336 19341 1
19337 19339 1
19337 19340 1
19339 19341 1
19342 19345 1
19342 19346 1
19342 19350 1
19342 19353 1
19343 19347 1
19343 19348 1
19343 19351 1
19344 19349 1
19344 19350 1
19344 19353 1
19345 19347 1
19345 19348 1
19345 19352 1
19346 19351 1
19346 19352 1
19347 19349 1
19347 19350 1
19348 19353 1
19349 19351 1
19349 19352 1
19351 19353 1
19354 19357 1
19354 19358 1
19354 19362 1
19354 19365 1
19355 19359 1
19355 19360 1
19355 19363 1
19356 19361 1
19356 19362 1
19356 19365 1
19357 19359 1
19357 19360 1
19357 19364 1
19358 19363 1
19358 19364 1
19359 19361 1
19359 19362 1
19360 19365 1
19361 19363 1
19361 19364 1
19363 19365 1
19366 19369 1
19366 19370 1
19366 19374 1
19366 19377 1
19367 19371 1
19367 19372 1
19367 19375 1
19368 19373 1
19368 19374 1
19368 19377 1
19369 19371 1
19369 19372 1
19369 19376 1
19370 19375 1
19370 19376 1
19371 19373 1
19371 19374 1
19372 19377 1
19373 19375 1
19373 19376 1
19375 19377 1
19378 19381 1
19378 19382 1
19378 19386 1
19378 19389 1
19379 19383 1
19379 19384 1
19379 19387 1
19380 19385 1
19380 19386 1
19380 19389 1
19381 19383 1
19381 19384 1
19381 19388 1
19382 19387 1
19382 19388 1
19383 19385 1
19383 19386 1
19384 19389 1
19385 19387 1
19385 19388 1
19387 19389 1
19390 19393 1
19390 19394 1
19390 19398 1
19390 19401 1
19391 19395 1
19391 19396 1
19391 19399 1
19392 19397 1
19392 19398 1
19392 19401 1
19393 19395 1
19393 19396 1
19393 19400 1
19394 19399 1
19394 19400 1
19395 19397 1
19395 19398 1
19396 19401 1
19397 19399 1
19397 19400 1
19399 19401 1
19402 19405 1
19402 19406 1
19402 19410 1
19402 19413 1
19403 19407 1
19403 19408 1
19403 19411 1
19404 19409 1
19404 19410 1
19404 19413 1
19405 19407 1
19405 19408 1
19405 19412 1
19406 19411 1
19406 19412 1
19407 19409 1
19407 19410 1
19408 19413 1
19409 19411 1
19409 19412 1
19411 19413 1
19414 19417 1
19414 19418 1
19414 19422 1
19414 19425 1
19415 19419 1
19415 19420 1
19415 19423 1
19416 19421 1
19416 19422 1
19416 19425 1
19417 19419 1
19417 19420 1
19417 19424 1
19418 19423 1
19418 19424 1
19419 19421 1
19419 19422 1
19420 19425 1
19421 19423 1
19421 19424 1
19423 19425 1
19426 19429 1
19426 19430 1
19426 19434 1
19426 19437 1
19427 19431 1
19427 19432 1
19427 19435 1
19428 19433 1
19428 19434 1
19428 19437 1
19429 19431 1
19429 19432 1
19429 19436 1
19430 19435 1
19430 19436 1
19431 19433 1
19431 19434 1
19432 19437 1
19433 19435 1
19433 19436 1
19435 19437 1
19438 19441 1
19438 19442 1
19438 19446 1
19438 19449 1
19439 19443 1
19439 19444 1
19439 19447 1
19440 19445 1
19440 19446 1
19440 19449 1
19441 19443 1
19441 19444 1
19441 19448 1
19442 19447 1
19442 19448 1
19443 19445 1
19443 19446 1
19444 19449 1
19445 19447 1
19445 19448 1
19447 19449 1
19450 19453 1
19450 19454 1
19450 19458 1
19450 19461 1
19451 19455 1
19451 19456 1
19451 19459 1
19452 19457 1
19452 19458 1
19452 19461 1
19453 19455 1
19453 19456 1
19453 19460 1
19454 19459 1
19454 19460 1
19455 19457 1
19455 19458 1
19456 19461 1
19457 19459 1
19457 19460 1
19459 19461 1
19462 19465 1
19462 19466 1
19462 19470 1
19462 19473 1
19463 19467 1
19463 19468 1
19463 19471 1
19464 19469 1
19464 19470 1
19464 19473 1
19465 19467 1
19465 19468 1
19465 19472 1
19466 19471 1
19466 19472 1
19467 19469 1
19467 19470 1
19468 19473 1
19469 19471 1
19469 19472 1
19471 19473 1
19474 19477 1
19474 19478 1
19474 19482 1
19474 19485 1
19475 19479 1
19475 19480 1
19475 19483 1
19476 19481 1
19476 19482 1
19476 19485 1
19477 19479 1
19477 19480 1
19477 19484 1
19478 19483 1
19478 19484 1
19479 19481 1
19479 19482 1
19480 19485 1
19481 19483 1
19481 19484 1
19483 19485 1
19486 19489 1
19486 19490 1
19486 19494 1
19486 19497 1
19487 19491 1
19487 19492 1
19487 19495 1
19488 19493 1
19488 19494 1
19488 19497 1
19489 19491 1
19489 19492 1
19489 19496 1
19490 19495 1
19490 19496 1
19491 19493 1
19491 19494 1
19492 19497 1
19493 19495 1
19493 19496 1
19495 19497 1
19498 19501 1
19498 19502 1
19498 19506 1
19498 19509 1
19499 19503 1
19499 19504 1
19499 19507 1
19500 19505 1
19500 19506 1
19500 19509 1
19501 19503 1
19501 19504 1
19501 19508 1
19502 19507 1
19502 19508 1
19503 19505 1
19503 19506 1
19504 19509 1
19505 19507 1
19505 19508 1
19507 19509 1
19510 19513 1
19510 19514 1
19510 19518 1
19510 19521 1
19511 19515 1
19511 19516 1
19511 19519 1
19512 19517 1
19512 19518 1
19512 19521 1
19513 19515 1
19513 19516 1
19513 19520 1
19514 19519 1
19514 19520 1
19515 19517 1
19515 19518 1
19516 19521 1
19517 19519 1
19517 19520 1
19519 19521 1
19522 19525 1
19522 19526 1
19522 19530 1
19522 19533 1
19523 19527 1
19523 19528 1
19523 19531 1
19524 19529 1
19524 19530 1
19524 19533 1
19525 19527 1
19525 19528 1
19525 19532 1
19526 19531 1
19526 19532 1
19527 19529 1
19527 19530 1
19528 19533 1
19529 19531 1
19529 19532 1
19531 19533 1
19534 19537 1
19534 19538 1
19534 19542 1
19534 19545 1
19535 19539 1
19535 19540 1
19535 19543 1
19536 19541 1
19536 19542 1
19536 19545 1
19537 19539 1
19537 19540 1
19537 19544 1
19538 19543 1
19538 19544 1
19539 19541 1
19539 19542 1
19540 19545 1
19541 19543 1
19541 19544 1
19543 19545 1
19546 19549 1
19546 19550 1
19546 19554 1
19546 19557 1
19547 19551 1
19547 19552 1
19547 19555 1
19548 19553 1
19548 19554 1
19548 19557 1
19549 19551 1
19549 19552 1
19549 19556 1
19550 19555 1
19550 19556 1
19551 19553 1
19551 19554 1
19552 19557 1
19553 19555 1
19553 19556 1
19555 19557 1
19558 19561 1
19558 19562 1
19558 19566 1
19558 19569 1
19559 19563 1
19559 19564 1
19559 19567 1
19560 19565 1
19560 19566 1
19560 19569 1
19561 19563 1
19561 19564 1
19561 19568 1
19562 19567 1
19562 19568 1
19563 19565 1
19563 19566 1
19564 19569 1
19565 19567 1
19565 19568 1
19567 19569 1
19570 19573 1
19570 19574 1
19570 19578 1
19570 19581 1
19571 19575 1
19571 19576 1
19571 19579 1
19572 19577 1
19572 19578 1
19572 19581 1
19573 19575 1
19573 19576 1
19573 19580 1
19574 19579 1
19574 19580 1
19575 19577 1
19575 19578 1
19576 19581 1
19577 19579 1
19577 19580 1
19579 19581 1
19582 19585 1
19582 19586 1
19582 19590 1
19582 19593 1
19583 19587 1
19583 19588 1
19583 19591 1
19584 19589 1
19584 19590 1
19584 19593 1
19585 19587 1
19585 19588 1
19585 19592 1
19586 19591 1
19586 19592 1
19587 19589 1
19587 19590 1
19588 19593 1
19589 19591 1
19589 19592 1
19591 19593 1
19594 19597 1
19594 19598 1
19594 19602 1
19594 19605 1
19595 19599 1
19595 19600 1
19595 19603 1
19596 19601 1
19596 19602 1
19596 19605 1
19597 19599 1
19597 19600 1
19597 19604 1
19598 19603 1
19598 19604 1
19599 19601 1
19599 19602 1
19600 19605 1
19601 19603 1
19601 19604 1
19603 19605 1
19606 19609 1
19606 19610 1
19606 19614 1
19606 19617 1
19607 19611 1
19607 19612 1
19607 19615 1
19608 19613 1
19608 19614 1
19608 19617 1
19609 19611 1
19609 19612 1
19609 19616 1
19610 19615 1
19610 19616 1
19611 19613 1
19611 19614 1
19612 19617 1
19613 19615 1
19613 19616 1
19615 19617 1
19618 19621 1
19618 19622 1
19618 19626 1
19618 19629 1
19619 19623 1
19619 19624 1
19619 19627 1
19620 19625 1
19620 19626 1
19620 19629 1
19621 19623 1
19621 19624 1
19621 19628 1
19622 19627 1
19622 19628 1
19623 19625 1
19623 19626 1
19624 19629 1
19625 19627 1
19625 19628 1
19627 19629 1
19630 19633 1
19630 19634 1
19630 19638 1
19630 19641 1
19631 19635 1
19631 19636 1
19631 19639 1
19632 19637 1
19632 19638 1
19632 19641 1
19633 19635 1
19633 19636 1
19633 19640 1
19634 19639 1
19634 19640 1
19635 19637 1
19635 19638 1
19636 19641 1
19637 19639 1
19637 19640 1
19639 19641 1
19642 19645 1
19642 19646 1
19642 19650 1
19642 19653 1
19643 19647 1
19643 19648 1
19643 19651 1
19644 19649 1
19644 19650 1
19644 19653 1
19645 19647 1
19645 19648 1
19645 19652 1
19646 19651 1
19646 19652 1
19647 19649 1
19647 19650 1
19648 19653 1
19649 19651 1
19649 19652 1
19651 19653 1
19654 19657 1
19654 19658 1
19654 19662 1
19654 19665 1
19655 19659 1
19655 19660 1
19655 19663 1
19656 19661 1
19656 19662 1
19656 19665 1
19657 19659 1
19657 19660 1
19657 19664 1
19658 19663 1
19658 19664 1
19659 19661 1
19659 19662 1
19660 19665 1
19661 19663 1
19661 19664 1
19663 19665 1
19666 19669 1
19666 19670 1
19666 19674 1
19666 19677 1
19667 19671 1
19667 19672 1
19667 19675 1
19668 19673 1
19668 19674 1
19668 19677 1
19669 19671 1
19669 19672 1
19669 19676 1
19670 19675 1
19670 19676 1
19671 19673 1
19671 19674 1
19672 19677 1
19673 19675 1
19673 19676 1
19675 19677 1
19678 19681 1
19678 19682 1
19678 19686 1
19678 19689 1
19679 19683 1
19679 19684 1
19679 19687 1
19680 19685 1
19680 19686 1
19680 19689 1
19681 19683 1
19681 19684 1
19681 19688 1
19682 19687 1
19682 19688 1
19683 19685 1
19683 19686 1
19684 19689 1
19685 19687 1
19685 19688 1
19687 19689 1
19690 19693 1
19690 19694 1
19690 19698 1
19690 19701 1
19691 19695 1
19691 19696 1
19691 19699 1
19692 19697 1
19692 19698 1
19692 19701 1
19693 19695 1
19693 19696 1
19693 19700 1
19694 19699 1
19694 19700 1
19695 19697 1
19695 19698 1
19696 19701 1
19697 19699 1
19697 19700 1
19699 19701 1
19702 19705 1
19702 19706 1
19702 19710 1
19702 19713 1
19703 19707 1
19703 19708 1
19703 19711 1
19704 19709 1
19704 19710 1
19704 19713 1
19705 19707 1
19705 19708 1
19705 19712 1
19706 19711 1
19706 19712 1
19707 19709 1
19707 19710 1
19708 19713 1
19709 19711 1
19709 19712 1
19711 19713 1
19714 19717 1
19714 19718 1
19714 19722 1
19714 19725 1
19715 19719 1
19715 19720 1
19715 19723 1
19716 19721 1
19716 19722 1
19716 19725 1
19717 19719 1
19717 19720 1
19717 19724 1
19718 19723 1
19718 19724 1
19719 19721 1
19719 19722 1
19720 19725 1
19721 19723 1
19721 19724 1
19723 19725 1
19726 19729 1
19726 19730 1
19726 19734 1
19726 19737 1
19727 19731 1
19727 19732 1
19727 19735 1
19728 19733 1
19728 19734 1
19728 19737 1
19729 19731 1
19729 19732 1
19729 19736 1
19730 19735 1
19730 19736 1
19731 19733 1
19731 19734 1
19732 19737 1
19733 19735 1
19733 19736 1
19735 19737 1
19738 19741 1
19738 19742 1
19738 19746 1
19738 19749 1
19739 19743 1
19739 19744 1
19739 19747 1
19740 19745 1
19740 19746 1
19740 19749 1
19741 19743 1
19741 19744 1
19741 19748 1
19742 19747 1
19742 19748 1
19743 19745 1
19743 19746 1
19744 19749 1
19745 19747 1
19745 19748 1
19747 19749 1
19750 19753 1
19750 19754 1
19750 19758 1
19750 19761 1
19751 19755 1
19751 19756 1
19751 19759 1
19752 19757 1
19752 19758 1
19752 19761 1
19753 19755 1
19753 19756 1
19753 19760 1
19754 19759 1
19754 19760 1
19755 19757 1
19755 19758 1
19756 19761 1
19757 19759 1
19757 19760 1
19759 19761 1
19762 19765 1
19762 19766 1
19762 19770 1
19762 19773 1
19763 19767 1
19763 19768 1
19763 19771 1
19764 19769 1
19764 19770 1
19764 19773 1
19765 19767 1
19765 19768 1
19765 19772 1
19766 19771 1
19766 19772 1
19767 19769 1
19767 19770 1
19768 19773 1
19769 19771 1
19769 19772 1
19771 19773 1
19774 19777 1
19774 19778 1
19774 19782 1
19774 19785 1
19775 19779 1
19775 19780 1
19775 19783 1
19776 19781 1
19776 19782 1
19776 19785 1
19777 19779 1
19777 19780 1
19777 19784 1
19778 19783 1
19778 19784 1
19779 19781 1
19779 19782 1
19780 19785 1
19781 19783 1
19781 19784 1
19783 19785 1
19786 19789 1
19786 19790 1
19786 19794 1
19786 19797 1
19787 19791 1
19787 19792 1
19787 19795 1
19788 19793 1
19788 19794 1
19788 19797 1
19789 19791 1
19789 19792 1
19789 19796 1
19790 19795 1
19790 19796 1
19791 19793 1
19791 19794 1
19792 19797 1
19793 19795 1
19793 19796 1
19795 19797 1
19798 19801 1
19798 19802 1
19798 19806 1
19798 19809 1
19799 19803 1
19799 19804 1
19799 19807 1
19800 19805 1
19800 19806 1
19800 19809 1
19801 19803 1
19801 19804 1
19801 19808 1
19802 19807 1
19802 19808 1
19803 19805 1
19803 19806 1
19804 19809 1
19805 19807 1
19805 19808 1
19807 19809 1
19810 19813 1
19810 19814 1
19810 19818 1
19810 19821 1
19811 19815 1
19811 19816 1
19811 19819 1
19812 19817 1
19812 19818 1
19812 19821 1
19813 19815 1
19813 19816 1
19813 19820 1
19814 19819 1
19814 19820 1
19815 19817 1
19815 19818 1
19816 19821 1
19817 19819 1
19817 19820 1
19819 19821 1
19822 19825 1
19822 19826 1
19822 19830 1
19822 19833 1
19823 19827 1
19823 19828 1
19823 19831 1
19824 19829 1
19824 19830 1
19824 19833 1
19825 19827 1
19825 19828 1
19825 19832 1
19826 19831 1
19826 19832 1
19827 19829 1
19827 19830 1
19828 19833 1
19829 19831 1
19829 19832 1
19831 19833 1
19834 19837 1
19834 19838 1
19834 19842 1
19834 19845 1
19835 19839 1
19835 19840 1
19835 19843 1
19836 19841 1
19836 19842 1
19836 19845 1
19837 19839 1
19837 19840 1
19837 19844 1
19838 19843 1
19838 19844 1
19839 19841 1
19839 19842 1
19840 19845 1
19841 19843 1
19841 19844 1
19843 19845 1
19846 19849 1
19846 19850 1
19846 19854 1
19846 19857 1
19847 19851 1
19847 19852 1
19847 19855 1
19848 19853 1
19848 19854 1
19848 19857 1
19849 19851 1
19849 19852 1
19849 19856 1
19850 19855 1
19850 19856 1
19851 19853 1
19851 19854 1
19852 19857 1
19853 19855 1
19853 19856 1
19855 19857 1
19858 19861 1
19858 19862 1
19858 19866 1
19858 19869 1
19859 19863 1
19859 19864 1
19859 19867 1
19860 19865 1
19860 19866 1
19860 19869 1
19861 19863 1
19861 19864 1
19861 19868 1
19862 19867 1
19862 19868 1
19863 19865 1
19863 19866 1
19864 19869 1
19865 19867 1
19865 19868 1
19867 19869 1
19870 19873 1
19870 19874 1
19870 19878 1
19870 19881 1
19871 19875 1
19871 19876 1
19871 19879 1
19872 19877 1
19872 19878 1
19872 19881 1
19873 19875 1
19873 19876 1
19873 19880 1
19874 19879 1
19874 19880 1
19875 19877 1
19875 19878 1
19876 19881 1
19877 19879 1
19877 19880 1
19879 19881 1
19882 19885 1
19882 19886 1
19882 19890 1
19882 19893 1
19883 19887 1
19883 19888 1
19883 19891 1
19884 19889 1
19884 19890 1
19884 19893 1
19885 19887 1
19885 19888 1
19885 19892 1
19886 19891 1
19886 19892 1
19887 19889 1
19887 19890 1
19888 19893 1
19889 19891 1
19889 19892 1
19891 19893 1
19894 19897 1
19894 19898 1
19894 19902 1
19894 19905 1
19895 19899 1
19895 19900 1
19895 19903 1
19896 19901 1
19896 19902 1
19896 19905 1
19897 19899 1
19897 19900 1
19897 19904 1
19898 19903 1
19898 19904 1
19899 19901 1
19899 19902 1
19900 19905 1
19901 19903 1
19901 19904 1
19903 19905 1
19906 19909 1
19906 19910 1
19906 19914 1
19906 19917 1
19907 19911 1
19907 19912 1
19907 19915 1
19908 19913 1
19908 19914 1
19908 19917 1
19909 19911 1
19909 19912 1
19909 19916 1
19910 19915 1
19910 19916 1
19911 19913 1
19911 19914 1
19912 19917 1
19913 19915 1
19913 19916 1
19915 19917 1
19918 19921 1
19918 19922 1
19918 19926 1
19918 19929 1
19919 19923 1
19919 19924 1
19919 19927 1
19920 19925 1
19920 19926 1
19920 19929 1
19921 19923 1
19921 19924 1
19921 19928 1
19922 19927 1
19922 19928 1
19923 19925 1
19923 19926 1
19924 19929 1
19925 19927 1
19925 19928 1
19927 19929 1
19930 19933 1
19930 19934 1
19930 19938 1
19930 19941 1
19931 19935 1
19931 19936 1
19931 19939 1
19932 19937 1
19932 19938 1
19932 19941 1
19933 19935 1
19933 19936 1
19933 19940 1
19934 19939 1
19934 19940 1
19935 19937 1
19935 19938 1
19936 19941 1
19937 19939 1
19937 19940 1
19939 19941 1
19942 19945 1
19942 19946 1
19942 19950 1
19942 19953 1
19943 19947 1
19943 19948 1
19943 19951 1
19944 19949 1
19944 19950 1
19944 19953 1
19945 19947 1
19945 19948 1
19945 19952 1
19946 19951 1
19946 19952 1
19947 19949 1
19947 19950 1
19948 19953 1
19949 19951 1
19949 19952 1
19951 19953 1
19954 19957 1
19954 19958 1
19954 19962 1
19954 19965 1
19955 19959 1
19955 19960 1
19955 19963 1
19956 19961 1
19956 19962 1
19956 19965 1
19957 19959 1
19957 19960 1
19957 19964 1
19958 19963 1
19958 19964 1
19959 19961 1
19959 19962 1
19960 19965 1
19961 19963 1
19961 19964 1
19963 19965 1
19966 19969 1
19966 19970 1
19966 19974 1
19966 19977 1
19967 19971 1
19967 19972 1
19967 19975 1
19968 19973 1
19968 19974 1
19968 19977 1
19969 19971 1
19969 19972 1
19969 19976 1
19970 19975 1
19970 19976 1
19971 19973 1
19971 19974 1
19972 19977 1
19973 19975 1
19973 19976 1
19975 19977 1
19978 19981 1
19978 19982 1
19978 19986 1
19978 19989 1
19979 19983 1
19979 19984 1
19979 19987 1
19980 19985 1
19980 19986 1
19980 19989 1
19981 19983 1
19981 19984 1
19981 19988 1
19982 19987 1
19982 19988 1
19983 19985 1
19983 19986 1
19984 19989 1
19985 19987 1
19985 19988 1
19987 19989 1
19990 19993 1
19990 19994 1
19990 19998 1
19990 20001 1
19991 19995 1
19991 19996 1
19991 19999 1
19992 19997 1
19992 19998 1
19992 20001 1
19993 19995 1
19993 19996 1
19993 20000 1
19994 19999 1
19994 20000 1
19995 19997 1
19995 19998 1
19996 20001 1
19997 19999 1
19997 20000 1
19999 20001 1
20002 20005 1
20002 20006 1
20002 20010 1
20002 20013 1
20003 20007 1
20003 20008 1
20003 20011 1
20004 20009 1
20004 20010 1
20004 20013 1
20005 20007 1
20005 20008 1
20005 20012 1
20006 20011 1
20006 20012 1
20007 20009 1
20007 20010 1
20008 20013 1
20009 20011 1
20009 20012 1
20011 20013 1
20014 20017 1
20014 20018 1
20014 20022 1
20014 20025 1
20015 20019 1
20015 20020 1
20015 20023 1
20016 20021 1
20016 20022 1
20016 20025 1
20017 20019 1
20017 20020 1
20017 20024 1
20018 20023 1
20018 20024 1
20019 20021 1
20019 20022 1
20020 20025 1
20021 20023 1
20021 20024 1
20023 20025 1
20026 20029 1
20026 20030 1
20026 20034 1
20026 20037 1
20027 20031 1
20027 20032 1
20027 20035 1
20028 20033 1
20028 20034 1
20028 20037 1
20029 20031 1
20029 20032 1
20029 20036 1
20030 20035 1
20030 20036 1
20031 20033 1
20031 20034 1
20032 20037 1
20033 20035 1
20033 20036 1
20035 20037 1
20038 20041 1
20038 20042 1
20038 20046 1
20038 20049 1
20039 20043 1
20039 20044 1
20039 20047 1
20040 20045 1
20040 20046 1
20040 20049 1
20041 20043 1
20041 20044 1
20041 20048 1
20042 20047 1
20042 20048 1
20043 20045 1
20043 20046 1
20044 20049 1
20045 20047 1
20045 20048 1
20047 20049 1
20050 20053 1
20050 20054 1
20050 20058 1
20050 20061 1
20051 20055 1
20051 20056 1
20051 20059 1
20052 20057 1
20052 20058 1
20052 20061 1
20053 20055 1
20053 20056 1
20053 20060 1
20054 20059 1
20054 20060 1
20055 20057 1
20055 20058 1
20056 20061 1
20057 20059 1
20057 20060 1
20059 20061 1
20062 20065 1
20062 20066 1
20062 20070 1
20062 20073 1
20063 20067 1
20063 20068 1
20063 20071 1
20064 20069 1
20064 20070 1
20064 20073 1
20065 20067 1
20065 20068 1
20065 20072 1
20066 20071 1
20066 20072 1
20067 20069 1
20067 20070 1
20068 20073 1
20069 20071 1
20069 20072 1
20071 20073 1
20074 20077 1
20074 20078 1
20074 20082 1
20074 20085 1
20075 20079 1
20075 20080 1
20075 20083 1
20076 20081 1
20076 20082 1
20076 20085 1
20077 20079 1
20077 20080 1
20077 20084 1
20078 20083 1
20078 20084 1
20079 20081 1
20079 20082 1
20080 20085 1
20081 20083 1
20081 20084 1
20083 20085 1
20086 20089 1
20086 20090 1
20086 20094 1
20086 20097 1
20087 20091 1
20087 20092 1
20087 20095 1
20088 20093 1
20088 20094 1
20088 20097 1
20089 20091 1
20089 20092 1
20089 20096 1
20090 20095 1
20090 20096 1
20091 20093 1
20091 20094 1
20092 20097 1
20093 20095 1
20093 20096 1
20095 20097 1
20098 20101 1
20098 20102 1
20098 20106 1
20098 20109 1
20099 20103 1
20099 20104 1
20099 20107 1
20100 20105 1
20100 20106 1
20100 20109 1
20101 20103 1
20101 20104 1
20101 20108 1
20102 20107 1
20102 20108 1
20103 20105 1
20103 20106 1
20104 20109 1
20105 20107 1
20105 20108 1
20107 20109 1
20110 20113 1
20110 20114 1
20110 20118 1
20110 20121 1
20111 20115 1
20111 20116 1
20111 20119 1
20112 20117 1
20112 20118 1
20112 20121 1
20113 20115 1
20113 20116 1
20113 20120 1
20114 20119 1
20114 20120 1
20115 20117 1
20115 20118 1
20116 20121 1
20117 20119 1
20117 20120 1
20119 20121 1
20122 20125 1
20122 20126 1
20122 20130 1
20122 20133 1
20123 20127 1
20123 20128 1
20123 20131 1
20124 20129 1
20124 20130 1
20124 20133 1
20125 20127 1
20125 20128 1
20125 20132 1
20126 20131 1
20126 20132 1
20127 20129 1
20127 20130 1
20128 20133 1
20129 20131 1
20129 20132 1
20131 20133 1
20134 20137 1
20134 20138 1
20134 20142 1
20134 20145 1
20135 20139 1
20135 20140 1
20135 20143 1
20136 20141 1
20136 20142 1
20136 20145 1
20137 20139 1
20137 20140 1
20137 20144 1
20138 20143 1
20138 20144 1
20139 20141 1
20139 20142 1
20140 20145 1
20141 20143 1
20141 20144 1
20143 20145 1
20146 20149 1
20146 20150 1
20146 20154 1
20146 20157 1
20147 20151 1
20147 20152 1
20147 20155 1
20148 20153 1
20148 20154 1
20148 20157 1
20149 20151 1
20149 20152 1
20149 20156 1
20150 20155 1
20150 20156 1
20151 20153 1
20151 20154 1
20152 20157 1
20153 20155 1
20153 20156 1
20155 20157 1
20158 20161 1
20158 20162 1
20158 20166 1
20158 20169 1
20159 20163 1
20159 20164 1
20159 20167 1
20160 20165 1
20160 20166 1
20160 20169 1
20161 20163 1
20161 20164 1
20161 20168 1
20162 20167 1
20162 20168 1
20163 20165 1
20163 20166 1
20164 20169 1
20165 20167 1
20165 20168 1
20167 20169 1
20170 20173 1
20170 20174 1
20170 20178 1
20170 20181 1
20171 20175 1
20171 20176 1
20171 20179 1
20172 20177 1
20172 20178 1
20172 20181 1
20173 20175 1
20173 20176 1
20173 20180 1
20174 20179 1
20174 20180 1
20175 20177 1
20175 20178 1
20176 20181 1
20177 20179 1
20177 20180 1
20179 20181 1
20182 20185 1
20182 20186 1
20182 20190 1
20182 20193 1
20183 20187 1
20183 20188 1
20183 20191 1
20184 20189 1
20184 20190 1
20184 20193 1
20185 20187 1
20185 20188 1
20185 20192 1
20186 20191 1
20186 20192 1
20187 20189 1
20187 20190 1
20188 20193 1
20189 20191 1
20189 20192 1
20191 20193 1
20194 20197 1
20194 20198 1
20194 20202 1
20194 20205 1
20195 20199 1
20195 20200 1
20195 20203 1
20196 20201 1
20196 20202 1
20196 20205 1
20197 20199 1
20197 20200 1
20197 20204 1
20198 20203 1
20198 20204 1
20199 20201 1
20199 20202 1
20200 20205 1
20201 20203 1
20201 20204 1
20203 20205 1
20206 20209 1
20206 20210 1
20206 20214 1
20206 20217 1
20207 20211 1
20207 20212 1
20207 20215 1
20208 20213 1
20208 20214 1
20208 20217 1
20209 20211 1
20209 20212 1
20209 20216 1
20210 20215 1
20210 20216 1
20211 20213 1
20211 20214 1
20212 20217 1
20213 20215 1
20213 20216 1
20215 20217 1
20218 20221 1
20218 20222 1
20218 20226 1
20218 20229 1
20219 20223 1
20219 20224 1
20219 20227 1
20220 20225 1
20220 20226 1
20220 20229 1
20221 20223 1
20221 20224 1
20221 20228 1
20222 20227 1
20222 20228 1
20223 20225 1
20223 20226 1
20224 20229 1
20225 20227 1
20225 20228 1
20227 20229 1
20230 20233 1
20230 20234 1
20230 20238 1
20230 20241 1
20231 20235 1
20231 20236 1
20231 20239 1
20232 20237 1
20232 20238 1
20232 20241 1
20233 20235 1
20233 20236 1
20233 20240 1
20234 20239 1
20234 20240 1
20235 20237 1
20235 20238 1
20236 20241 1
20237 20239 1
20237 20240 1
20239 20241 1
20242 20245 1
20242 20246 1
20242 20250 1
20242 20253 1
20243 20247 1
20243 20248 1
20243 20251 1
20244 20249 1
20244 20250 1
20244 20253 1
20245 20247 1
20245 20248 1
20245 20252 1
20246 20251 1
20246 20252 1
20247 20249 1
20247 20250 1
20248 20253 1
20249 20251 1
20249 20252 1
20251 20253 1
20254 20257 1
20254 20258 1
20254 20262 1
20254 20265 1
20255 20259 1
20255 20260 1
20255 20263 1
20256 20261 1
20256 20262 1
20256 20265 1
20257 20259 1
20257 20260 1
20257 20264 1
20258 20263 1
20258 20264 1
20259 20261 1
20259 20262 1
20260 20265 1
20261 20263 1
20261 20264 1
20263 20265 1
20266 20269 1
20266 20270 1
20266 20274 1
20266 20277 1
20267 20271 1
20267 20272 1
20267 20275 1
20268 20273 1
20268 20274 1
20268 20277 1
20269 20271 1
20269 20272 1
20269 20276 1
20270 20275 1
20270 20276 1
20271 20273 1
20271 20274 1
20272 20277 1
20273 20275 1
20273 20276 1
20275 20277 1
20278 20281 1
20278 20282 1
20278 20286 1
20278 20289 1
20279 20283 1
20279 20284 1
20279 20287 1
20280 20285 1
20280 20286 1
20280 20289 1
20281 20283 1
20281 20284 1
20281 20288 1
20282 20287 1
20282 20288 1
20283 20285 1
20283 20286 1
20284 20289 1
20285 20287 1
20285 20288 1
20287 20289 1
20290 20293 1
20290 20294 1
20290 20298 1
20290 20301 1
20291 20295 1
20291 20296 1
20291 20299 1
20292 20297 1
20292 20298 1
20292 20301 1
20293 20295 1
20293 20296 1
20293 20300 1
20294 20299 1
20294 20300 1
20295 20297 1
20295 20298 1
20296 20301 1
20297 20299 1
20297 20300 1
20299 20301 1
20302 20305 1
20302 20306 1
20302 20310 1
20302 20313 1
20303 20307 1
20303 20308 1
20303 20311 1
20304 20309 1
20304 20310 1
20304 20313 1
20305 20307 1
20305 20308 1
20305 20312 1
20306 20311 1
20306 20312 1
20307 20309 1
20307 20310 1
20308 20313 1
20309 20311 1
20309 20312 1
20311 20313 1
20314 20317 1
20314 20318 1
20314 20322 1
20314 20325 1
20315 20319 1
20315 20320 1
20315 20323 1
20316 20321 1
20316 20322 1
20316 20325 1
20317 20319 1
20317 20320 1
20317 20324 1
20318 20323 1
20318 20324 1
20319 20321 1
20319 20322 1
20320 20325 1
20321 20323 1
20321 20324 1
20323 20325 1
20326 20329 1
20326 20330 1
20326 20334 1
20326 20337 1
20327 20331 1
20327 20332 1
20327 20335 1
20328 20333 1
20328 20334 1
20328 20337 1
20329 20331 1
20329 20332 1
20329 20336 1
20330 20335 1
20330 20336 1
20331 20333 1
20331 20334 1
20332 20337 1
20333 20335 1
20333 20336 1
20335 20337 1
20338 20341 1
20338 20342 1
20338 20346 1
20338 20349 1
20339 20343 1
20339 20344 1
20339 20347 1
20340 20345 1
20340 20346 1
20340 20349 1
20341 20343 1
20341 20344 1
20341 20348 1
20342 20347 1
20342 20348 1
20343 20345 1
20343 20346 1
20344 20349 1
20345 20347 1
20345 20348 1
20347 20349 1
20350 20353 1
20350 20354 1
20350 20358 1
20350 20361 1
20351 20355 1
20351 20356 1
20351 20359 1
20352 20357 1
20352 20358 1
20352 20361 1
20353 20355 1
20353 20356 1
20353 20360 1
20354 20359 1
20354 20360 1
20355 20357 1
20355 20358 1
20356 20361 1
20357 20359 1
20357 20360 1
20359 20361 1
20362 20365 1
20362 20366 1
20362 20370 1
20362 20373 1
20363 20367 1
20363 20368 1
20363 20371 1
20364 20369 1
20364 20370 1
20364 20373 1
20365 20367 1
20365 20368 1
20365 20372 1
20366 20371 1
20366 20372 1
20367 20369 1
20367 20370 1
20368 20373 1
20369 20371 1
20369 20372 1
20371 20373 1
20374 20377 1
20374 20378 1
20374 20382 1
20374 20385 1
20375 20379 1
20375 20380 1
20375 20383 1
20376 20381 1
20376 20382 1
20376 20385 1
20377 20379 1
20377 20380 1
20377 20384 1
20378 20383 1
20378 20384 1
20379 20381 1
20379 20382 1
20380 20385 1
20381 20383 1
20381 20384 1
20383 20385 1
20386 20389 1
20386 20390 1
20386 20394 1
20386 20397 1
20387 20391 1
20387 20392 1
20387 20395 1
20388 20393 1
20388 20394 1
20388 20397 1
20389 20391 1
20389 20392 1
20389 20396 1
20390 20395 1
20390 20396 1
20391 20393 1
20391 20394 1
20392 20397 1
20393 20395 1
20393 20396 1
20395 20397 1
20398 20401 1
20398 20402 1
20398 20406 1
20398 20409 1
20399 20403 1
20399 20404 1
20399 20407 1
20400 20405 1
20400 20406 1
20400 20409 1
20401 20403 1
20401 20404 1
20401 20408 1
20402 20407 1
20402 20408 1
20403 20405 1
20403 20406 1
20404 20409 1
20405 20407 1
20405 20408 1
20407 20409 1
20410 20413 1
20410 20414 1
20410 20418 1
20410 20421 1
20411 20415 1
20411 20416 1
20411 20419 1
20412 20417 1
20412 20418 1
20412 20421 1
20413 20415 1
20413 20416 1
20413 20420 1
20414 20419 1
20414 20420 1
20415 20417 1
20415 20418 1
20416 20421 1
20417 20419 1
20417 20420 1
20419 20421 1
20422 20425 1
20422 20426 1
20422 20430 1
20422 20433 1
20423 20427 1
20423 20428 1
20423 20431 1
20424 20429 1
20424 20430 1
20424 20433 1
20425 20427 1
20425 20428 1
20425 20432 1
20426 20431 1
20426 20432 1
20427 20429 1
20427 20430 1
20428 20433 1
20429 20431 1
20429 20432 1
20431 20433 1
20434 20437 1
20434 20438 1
20434 20442 1
20434 20445 1
20435 20439 1
20435 20440 1
20435 20443 1
20436 20441 1
20436 20442 1
20436 20445 1
20437 20439 1
20437 20440 1
20437 20444 1
20438 20443 1
20438 20444 1
20439 20441 1
20439 20442 1
20440 20445 1
20441 20443 1
20441 20444 1
20443 20445 1
20446 20449 1
20446 20450 1
20446 20454 1
20446 20457 1
20447 20451 1
20447 20452 1
20447 20455 1
20448 20453 1
20448 20454 1
20448 20457 1
20449 20451 1
20449 20452 1
20449 20456 1
20450 20455 1
20450 20456 1
20451 20453 1
20451 20454 1
20452 20457 1
20453 20455 1
20453 20456 1
20455 20457 1
20458 20461 1
20458 20462 1
20458 20466 1
20458 20469 1
20459 20463 1
20459 20464 1
20459 20467 1
20460 20465 1
20460 20466 1
20460 20469 1
20461 20463 1
20461 20464 1
20461 20468 1
20462 20467 1
20462 20468 1
20463 20465 1
20463 20466 1
20464 20469 1
20465 20467 1
20465 20468 1
20467 20469 1
20470 20473 1
20470 20474 1
20470 20478 1
20470 20481 1
20471 20475 1
20471 20476 1
20471 20479 1
20472 20477 1
20472 20478 1
20472 20481 1
20473 20475 1
20473 20476 1
20473 20480 1
20474 20479 1
20474 20480 1
20475 20477 1
20475 20478 1
20476 20481 1
20477 20479 1
20477 20480 1
20479 20481 1
20482 20485 1
20482 20486 1
20482 20490 1
20482 20493 1
20483 20487 1
20483 20488 1
20483 20491 1
20484 20489 1
20484 20490 1
20484 20493 1
20485 20487 1
20485 20488 1
20485 20492 1
20486 20491 1
20486 20492 1
20487 20489 1
20487 20490 1
20488 20493 1
20489 20491 1
20489 20492 1
20491 20493 1
20494 20497 1
20494 20498 1
20494 20502 1
20494 20505 1
20495 20499 1
20495 20500 1
20495 20503 1
20496 20501 1
20496 20502 1
20496 20505 1
20497 20499 1
20497 20500 1
20497 20504 1
20498 20503 1
20498 20504 1
20499 20501 1
20499 20502 1
20500 20505 1
20501 20503 1
20501 20504 1
20503 20505 1
20506 20509 1
20506 20510 1
20506 20514 1
20506 20517 1
20507 20511 1
20507 20512 1
20507 20515 1
20508 20513 1
20508 20514 1
20508 20517 1
20509 20511 1
20509 20512 1
20509 20516 1
20510 20515 1
20510 20516 1
20511 20513 1
20511 20514 1
20512 20517 1
20513 20515 1
20513 20516 1
20515 20517 1
20518 20521 1
20518 20522 1
20518 20526 1
20518 20529 1
20519 20523 1
20519 20524 1
20519 20527 1
20520 20525 1
20520 20526 1
20520 20529 1
20521 20523 1
20521 20524 1
20521 20528 1
20522 20527 1
20522 20528 1
20523 20525 1
20523 20526 1
20524 20529 1
20525 20527 1
20525 20528 1
20527 20529 1
20530 20533 1
20530 20534 1
20530 20538 1
20530 20541 1
20531 20535 1
20531 20536 1
20531 20539 1
20532 20537 1
20532 20538 1
20532 20541 1
20533 20535 1
20533 20536 1
20533 20540 1
20534 20539 1
20534 20540 1
20535 20537 1
20535 20538 1
20536 20541 1
20537 20539 1
20537 20540 1
20539 20541 1
20542 20545 1
20542 20546 1
20542 20550 1
20542 20553 1
20543 20547 1
20543 20548 1
20543 20551 1
20544 20549 1
20544 20550 1
20544 20553 1
20545 20547 1
20545 20548 1
20545 20552 1
20546 20551 1
20546 20552 1
20547 20549 1
20547 20550 1
20548 20553 1
20549 20551 1
20549 20552 1
20551 20553 1
20554 20557 1
20554 20558 1
20554 20562 1
20554 20565 1
20555 20559 1
20555 20560 1
20555 20563 1
20556 20561 1
20556 20562 1
20556 20565 1
20557 20559 1
20557 20560 1
20557 20564 1
20558 20563 1
20558 20564 1
20559 20561 1
20559 20562 1
20560 20565 1
20561 20563 1
20561 20564 1
20563 20565 1
20566 20569 1
20566 20570 1
20566 20574 1
20566 20577 1
20567 20571 1
20567 20572 1
20567 20575 1
20568 20573 1
20568 20574 1
20568 20577 1
20569 20571 1
20569 20572 1
20569 20576 1
20570 20575 1
20570 20576 1
20571 20573 1
20571 20574 1
20572 20577 1
20573 20575 1
20573 20576 1
20575 20577 1
20578 20581 1
20578 20582 1
20578 20586 1
20578 20589 1
20579 20583 1
20579 20584 1
20579 20587 1
20580 20585 1
20580 20586 1
20580 20589 1
20581 20583 1
20581 20584 1
20581 20588 1
20582 20587 1
20582 20588 1
20583 20585 1
20583 20586 1
20584 20589 1
20585 20587 1
20585 20588 1
20587 20589 1
20590 20593 1
20590 20594 1
20590 20598 1
20590 20601 1
20591 20595 1
20591 20596 1
20591 20599 1
20592 20597 1
20592 20598 1
20592 20601 1
20593 20595 1
20593 20596 1
20593 20600 1
20594 20599 1
20594 20600 1
20595 20597 1
20595 20598 1
20596 20601 1
20597 20599 1
20597 20600 1
20599 20601 1
20602 20605 1
20602 20606 1
20602 20610 1
20602 20613 1
20603 20607 1
20603 20608 1
20603 20611 1
20604 20609 1
20604 20610 1
20604 20613 1
20605 20607 1
20605 20608 1
20605 20612 1
20606 20611 1
20606 20612 1
20607 20609 1
20607 20610 1
20608 20613 1
20609 20611 1
20609 20612 1
20611 20613 1
20614 20617 1
20614 20618 1
20614 20622 1
20614 20625 1
20615 20619 1
20615 20620 1
20615 20623 1
20616 20621 1
20616 20622 1
20616 20625 1
20617 20619 1
20617 20620 1
20617 20624 1
20618 20623 1
20618 20624 1
20619 20621 1
20619 20622 1
20620 20625 1
20621 20623 1
20621 20624 1
20623 20625 1
20626 20629 1
20626 20630 1
20626 20634 1
20626 20637 1
20627 20631 1
20627 20632 1
20627 20635 1
20628 20633 1
20628 20634 1
20628 20637 1
20629 20631 1
20629 20632 1
20629 20636 1
20630 20635 1
20630 20636 1
20631 20633 1
20631 20634 1
20632 20637 1
20633 20635 1
20633 20636 1
20635 20637 1
20638 20641 1
20638 20642 1
20638 20646 1
20638 20649 1
20639 20643 1
20639 20644 1
20639 20647 1
20640 20645 1
20640 20646 1
20640 20649 1
20641 20643 1
20641 20644 1
20641 20648 1
20642 20647 1
20642 20648 1
20643 20645 1
20643 20646 1
20644 20649 1
20645 20647 1
20645 20648 1
20647 20649 1
20650 20653 1
20650 20654 1
20650 20658 1
20650 20661 1
20651 20655 1
20651 20656 1
20651 20659 1
20652 20657 1
20652 20658 1
20652 20661 1
20653 20655 1
20653 20656 1
20653 20660 1
20654 20659 1
20654 20660 1
20655 20657 1
20655 20658 1
20656 20661 1
20657 20659 1
20657 20660 1
20659 20661 1
20662 20665 1
20662 20666 1
20662 20670 1
20662 20673 1
20663 20667 1
20663 20668 1
20663 20671 1
20664 20669 1
20664 20670 1
20664 20673 1
20665 20667 1
20665 20668 1
20665 20672 1
20666 20671 1
20666 20672 1
20667 20669 1
20667 20670 1
20668 20673 1
20669 20671 1
20669 20672 1
20671 20673 1
20674 20677 1
20674 20678 1
20674 20682 1
20674 20685 1
20675 20679 1
20675 20680 1
20675 20683 1
20676 20681 1
20676 20682 1
20676 20685 1
20677 20679 1
20677 20680 1
20677 20684 1
20678 20683 1
20678 20684 1
20679 20681 1
20679 20682 1
20680 20685 1
20681 20683 1
20681 20684 1
20683 20685 1
20686 20689 1
20686 20690 1
20686 20694 1
20686 20697 1
20687 20691 1
20687 20692 1
20687 20695 1
20688 20693 1
20688 20694 1
20688 20697 1
20689 20691 1
20689 20692 1
20689 20696 1
20690 20695 1
20690 20696 1
20691 20693 1
20691 20694 1
20692 20697 1
20693 20695 1
20693 20696 1
20695 20697 1
20698 20701 1
20698 20702 1
20698 20706 1
20698 20709 1
20699 20703 1
20699 20704 1
20699 20707 1
20700 20705 1
20700 20706 1
20700 20709 1
20701 20703 1
20701 20704 1
20701 20708 1
20702 20707 1
20702 20708 1
20703 20705 1
20703 20706 1
20704 20709 1
20705 20707 1
20705 20708 1
20707 20709 1
20710 20713 1
20710 20714 1
20710 20718 1
20710 20721 1
20711 20715 1
20711 20716 1
20711 20719 1
20712 20717 1
20712 20718 1
20712 20721 1
20713 20715 1
20713 20716 1
20713 20720 1
20714 20719 1
20714 20720 1
20715 20717 1
20715 20718 1
20716 20721 1
20717 20719 1
20717 20720 1
20719 20721 1
20722 20725 1
20722 20726 1
20722 20730 1
20722 20733 1
20723 20727 1
20723 20728 1
20723 20731 1
20724 20729 1
20724 20730 1
20724 20733 1
20725 20727 1
20725 20728 1
20725 20732 1
20726 20731 1
20726 20732 1
20727 20729 1
20727 20730 1
20728 20733 1
20729 20731 1
20729 20732 1
20731 20733 1
20734 20737 1
20734 20738 1
20734 20742 1
20734 20745 1
20735 20739 1
20735 20740 1
20735 20743 1
20736 20741 1
20736 20742 1
20736 20745 1
20737 20739 1
20737 20740 1
20737 20744 1
20738 20743 1
20738 20744 1
20739 20741 1
20739 20742 1
20740 20745 1
20741 20743 1
20741 20744 1
20743 20745 1
20746 20749 1
20746 20750 1
20746 20754 1
20746 20757 1
20747 20751 1
20747 20752 1
20747 20755 1
20748 20753 1
20748 20754 1
20748 20757 1
20749 20751 1
20749 20752 1
20749 20756 1
20750 20755 1
20750 20756 1
20751 20753 1
20751 20754 1
20752 20757 1
20753 20755 1
20753 20756 1
20755 20757 1
20758 20761 1
20758 20762 1
20758 20766 1
20758 20769 1
20759 20763 1
20759 20764 1
20759 20767 1
20760 20765 1
20760 20766 1
20760 20769 1
20761 20763 1
20761 20764 1
20761 20768 1
20762 20767 1
20762 20768 1
20763 20765 1
20763 20766 1
20764 20769 1
20765 20767 1
20765 20768 1
20767 20769 1
20770 20773 1
20770 20774 1
20770 20778 1
20770 20781 1
20771 20775 1
20771 20776 1
20771 20779 1
20772 20777 1
20772 20778 1
20772 20781 1
20773 20775 1
20773 20776 1
20773 20780 1
20774 20779 1
20774 20780 1
20775 20777 1
20775 20778 1
20776 20781 1
20777 20779 1
20777 20780 1
20779 20781 1
20782 20785 1
20782 20786 1
20782 20790 1
20782 20793 1
20783 20787 1
20783 20788 1
20783 20791 1
20784 20789 1
20784 20790 1
20784 20793 1
20785 20787 1
20785 20788 1
20785 20792 1
20786 20791 1
20786 20792 1
20787 20789 1
20787 20790 1
20788 20793 1
20789 20791 1
20789 20792 1
20791 20793 1
20794 20797 1
20794 20798 1
20794 20802 1
20794 20805 1
20795 20799 1
20795 20800 1
20795 20803 1
20796 20801 1
20796 20802 1
20796 20805 1
20797 20799 1
20797 20800 1
20797 20804 1
20798 20803 1
20798 20804 1
20799 20801 1
20799 20802 1
20800 20805 1
20801 20803 1
20801 20804 1
20803 20805 1
20806 20809 1
20806 20810 1
20806 20814 1
20806 20817 1
20807 20811 1
20807 20812 1
20807 20815 1
20808 20813 1
20808 20814 1
20808 20817 1
20809 20811 1
20809 20812 1
20809 20816 1
20810 20815 1
20810 20816 1
20811 20813 1
20811 20814 1
20812 20817 1
20813 20815 1
20813 20816 1
20815 20817 1
20818 20821 1
20818 20822 1
20818 20826 1
20818 20829 1
20819 20823 1
20819 20824 1
20819 20827 1
20820 20825 1
20820 20826 1
20820 20829 1
20821 20823 1
20821 20824 1
20821 20828 1
20822 20827 1
20822 20828 1
20823 20825 1
20823 20826 1
20824 20829 1
20825 20827 1
20825 20828 1
20827 20829 1
20830 20833 1
20830 20834 1
20830 20838 1
20830 20841 1
20831 20835 1
20831 20836 1
20831 20839 1
20832 20837 1
20832 20838 1
20832 20841 1
20833 20835 1
20833 20836 1
20833 20840 1
20834 20839 1
20834 20840 1
20835 20837 1
20835 20838 1
20836 20841 1
20837 20839 1
20837 20840 1
20839 20841 1
20842 20845 1
20842 20846 1
20842 20850 1
20842 20853 1
20843 20847 1
20843 20848 1
20843 20851 1
20844 20849 1
20844 20850 1
20844 20853 1
20845 20847 1
20845 20848 1
20845 20852 1
20846 20851 1
20846 20852 1
20847 20849 1
20847 20850 1
20848 20853 1
20849 20851 1
20849 20852 1
20851 20853 1
20854 20857 1
20854 20858 1
20854 20862 1
20854 20865 1
20855 20859 1
20855 20860 1
20855 20863 1
20856 20861 1
20856 20862 1
20856 20865 1
20857 20859 1
20857 20860 1
20857 20864 1
20858 20863 1
20858 20864 1
20859 20861 1
20859 20862 1
20860 20865 1
20861 20863 1
20861 20864 1
20863 20865 1
20866 20869 1
20866 20870 1
20866 20874 1
20866 20877 1
20867 20871 1
20867 20872 1
20867 20875 1
20868 20873 1
20868 20874 1
20868 20877 1
20869 20871 1
20869 20872 1
20869 20876 1
20870 20875 1
20870 20876 1
20871 20873 1
20871 20874 1
20872 20877 1
20873 20875 1
20873 20876 1
20875 20877 1
20878 20881 1
20878 20882 1
20878 20886 1
20878 20889 1
20879 20883 1
20879 20884 1
20879 20887 1
20880 20885 1
20880 20886 1
20880 20889 1
20881 20883 1
20881 20884 1
20881 20888 1
20882 20887 1
20882 20888 1
20883 20885 1
20883 20886 1
20884 20889 1
20885 20887 1
20885 20888 1
20887 20889 1
20890 20893 1
20890 20894 1
20890 20898 1
20890 20901 1
20891 20895 1
20891 20896 1
20891 20899 1
20892 20897 1
20892 20898 1
20892 20901 1
20893 20895 1
20893 20896 1
20893 20900 1
20894 20899 1
20894 20900 1
20895 20897 1
20895 20898 1
20896 20901 1
20897 20899 1
20897 20900 1
20899 20901 1
20902 20905 1
20902 20906 1
20902 20910 1
20902 20913 1
20903 20907 1
20903 20908 1
20903 20911 1
20904 20909 1
20904 20910 1
20904 20913 1
20905 20907 1
20905 20908 1
20905 20912 1
20906 20911 1
20906 20912 1
20907 20909 1
20907 20910 1
20908 20913 1
20909 20911 1
20909 20912 1
20911 20913 1
20914 20917 1
20914 20918 1
20914 20922 1
20914 20925 1
20915 20919 1
20915 20920 1
20915 20923 1
20916 20921 1
20916 20922 1
20916 20925 1
20917 20919 1
20917 20920 1
20917 20924 1
20918 20923 1
20918 20924 1
20919 20921 1
20919 20922 1
20920 20925 1
20921 20923 1
20921 20924 1
20923 20925 1
20926 20929 1
20926 20930 1
20926 20934 1
20926 20937 1
20927 20931 1
20927 20932 1
20927 20935 1
20928 20933 1
20928 20934 1
20928 20937 1
20929 20931 1
20929 20932 1
20929 20936 1
20930 20935 1
20930 20936 1
20931 20933 1
20931 20934 1
20932 20937 1
20933 20935 1
20933 20936 1
20935 20937 1
20938 20941 1
20938 20942 1
20938 20946 1
20938 20949 1
20939 20943 1
20939 20944 1
20939 20947 1
20940 20945 1
20940 20946 1
20940 20949 1
20941 20943 1
20941 20944 1
20941 20948 1
20942 20947 1
20942 20948 1
20943 20945 1
20943 20946 1
20944 20949 1
20945 20947 1
20945 20948 1
20947 20949 1
20950 20953 1
20950 20954 1
20950 20958 1
20950 20961 1
20951 20955 1
20951 20956 1
20951 20959 1
20952 20957 1
20952 20958 1
20952 20961 1
20953 20955 1
20953 20956 1
20953 20960 1
20954 20959 1
20954 20960 1
20955 20957 1
20955 20958 1
20956 20961 1
20957 20959 1
20957 20960 1
20959 20961 1
20962 20965 1
20962 20966 1
20962 20970 1
20962 20973 1
20963 20967 1
20963 20968 1
20963 20971 1
20964 20969 1
20964 20970 1
20964 20973 1
20965 20967 1
20965 20968 1
20965 20972 1
20966 20971 1
20966 20972 1
20967 20969 1
20967 20970 1
20968 20973 1
20969 20971 1
20969 20972 1
20971 20973 1
20974 20977 1
20974 20978 1
20974 20982 1
20974 20985 1
20975 20979 1
20975 20980 1
20975 20983 1
20976 20981 1
20976 20982 1
20976 20985 1
20977 20979 1
20977 20980 1
20977 20984 1
20978 20983 1
20978 20984 1
20979 20981 1
20979 20982 1
20980 20985 1
20981 20983 1
20981 20984 1
20983 20985 1
20986 20989 1
20986 20990 1
20986 20994 1
20986 20997 1
20987 20991 1
20987 20992 1
20987 20995 1
20988 20993 1
20988 20994 1
20988 20997 1
20989 20991 1
20989 20992 1
20989 20996 1
20990 20995 1
20990 20996 1
20991 20993 1
20991 20994 1
20992 20997 1
20993 20995 1
20993 20996 1
20995 20997 1
20998 21001 1
20998 21002 1
20998 21006 1
20998 21009 1
20999 21003 1
20999 21004 1
20999 21007 1
21000 21005 1
21000 21006 1
21000 21009 1
21001 21003 1
21001 21004 1
21001 21008 1
21002 21007 1
21002 21008 1
21003 21005 1
21003 21006 1
21004 21009 1
21005 21007 1
21005 21008 1
21007 21009 1
21010 21013 1
21010 21014 1
21010 21018 1
21010 21021 1
21011 21015 1
21011 21016 1
21011 21019 1
21012 21017 1
21012 21018 1
21012 21021 1
21013 21015 1
21013 21016 1
21013 21020 1
21014 21019 1
21014 21020 1
21015 21017 1
21015 21018 1
21016 21021 1
21017 21019 1
21017 21020 1
21019 21021 1
21022 21025 1
21022 21026 1
21022 21030 1
21022 21033 1
21023 21027 1
21023 21028 1
21023 21031 1
21024 21029 1
21024 21030 1
21024 21033 1
21025 21027 1
21025 21028 1
21025 21032 1
21026 21031 1
21026 21032 1
21027 21029 1
21027 21030 1
21028 21033 1
21029 21031 1
21029 21032 1
21031 21033 1
21034 21037 1
21034 21038 1
21034 21042 1
21034 21045 1
21035 21039 1
21035 21040 1
21035 21043 1
21036 21041 1
21036 21042 1
21036 21045 1
21037 21039 1
21037 21040 1
21037 21044 1
21038 21043 1
21038 21044 1
21039 21041 1
21039 21042 1
21040 21045 1
21041 21043 1
21041 21044 1
21043 21045 1
21046 21049 1
21046 21050 1
21046 21054 1
21046 21057 1
21047 21051 1
21047 21052 1
21047 21055 1
21048 21053 1
21048 21054 1
21048 21057 1
21049 21051 1
21049 21052 1
21049 21056 1
21050 21055 1
21050 21056 1
21051 21053 1
21051 21054 1
21052 21057 1
21053 21055 1
21053 21056 1
21055 21057 1
21058 21061 1
21058 21062 1
21058 21066 1
21058 21069 1
21059 21063 1
21059 21064 1
21059 21067 1
21060 21065 1
21060 21066 1
21060 21069 1
21061 21063 1
21061 21064 1
21061 21068 1
21062 21067 1
21062 21068 1
21063 21065 1
21063 21066 1
21064 21069 1
21065 21067 1
21065 21068 1
21067 21069 1
21070 21073 1
21070 21074 1
21070 21078 1
21070 21081 1
21071 21075 1
21071 21076 1
21071 21079 1
21072 21077 1
21072 21078 1
21072 21081 1
21073 21075 1
21073 21076 1
21073 21080 1
21074 21079 1
21074 21080 1
21075 21077 1
21075 21078 1
21076 21081 1
21077 21079 1
21077 21080 1
21079 21081 1
21082 21085 1
21082 21086 1
21082 21090 1
21082 21093 1
21083 21087 1
21083 21088 1
21083 21091 1
21084 21089 1
21084 21090 1
21084 21093 1
21085 21087 1
21085 21088 1
21085 21092 1
21086 21091 1
21086 21092 1
21087 21089 1
21087 21090 1
21088 21093 1
21089 21091 1
21089 21092 1
21091 21093 1
21094 21097 1
21094 21098 1
21094 21102 1
21094 21105 1
21095 21099 1
21095 21100 1
21095 21103 1
21096 21101 1
21096 21102 1
21096 21105 1
21097 21099 1
21097 21100 1
21097 21104 1
21098 21103 1
21098 21104 1
21099 21101 1
21099 21102 1
21100 21105 1
21101 21103 1
21101 21104 1
21103 21105 1
21106 21109 1
21106 21110 1
21106 21114 1
21106 21117 1
21107 21111 1
21107 21112 1
21107 21115 1
21108 21113 1
21108 21114 1
21108 21117 1
21109 21111 1
21109 21112 1
21109 21116 1
21110 21115 1
21110 21116 1
21111 21113 1
21111 21114 1
21112 21117 1
21113 21115 1
21113 21116 1
21115 21117 1
21118 21121 1
21118 21122 1
21118 21126 1
21118 21129 1
21119 21123 1
21119 21124 1
21119 21127 1
21120 21125 1
21120 21126 1
21120 21129 1
21121 21123 1
21121 21124 1
21121 21128 1
21122 21127 1
21122 21128 1
21123 21125 1
21123 21126 1
21124 21129 1
21125 21127 1
21125 21128 1
21127 21129 1
21130 21133 1
21130 21134 1
21130 21138 1
21130 21141 1
21131 21135 1
21131 21136 1
21131 21139 1
21132 21137 1
21132 21138 1
21132 21141 1
21133 21135 1
21133 21136 1
21133 21140 1
21134 21139 1
21134 21140 1
21135 21137 1
21135 21138 1
21136 21141 1
21137 21139 1
21137 21140 1
21139 21141 1
21142 21145 1
21142 21146 1
21142 21150 1
21142 21153 1
21143 21147 1
21143 21148 1
21143 21151 1
21144 21149 1
21144 21150 1
21144 21153 1
21145 21147 1
21145 21148 1
21145 21152 1
21146 21151 1
21146 21152 1
21147 21149 1
21147 21150 1
21148 21153 1
21149 21151 1
21149 21152 1
21151 21153 1
21154 21157 1
21154 21158 1
21154 21162 1
21154 21165 1
21155 21159 1
21155 21160 1
21155 21163 1
21156 21161 1
21156 21162 1
21156 21165 1
21157 21159 1
21157 21160 1
21157 21164 1
21158 21163 1
21158 21164 1
21159 21161 1
21159 21162 1
21160 21165 1
21161 21163 1
21161 21164 1
21163 21165 1
21166 21169 1
21166 21170 1
21166 21174 1
21166 21177 1
21167 21171 1
21167 21172 1
21167 21175 1
21168 21173 1
21168 21174 1
21168 21177 1
21169 21171 1
21169 21172 1
21169 21176 1
21170 21175 1
21170 21176 1
21171 21173 1
21171 21174 1
21172 21177 1
21173 21175 1
21173 21176 1
21175 21177 1
21178 21181 1
21178 21182 1
21178 21186 1
21178 21189 1
21179 21183 1
21179 21184 1
21179 21187 1
21180 21185 1
21180 21186 1
21180 21189 1
21181 21183 1
21181 21184 1
21181 21188 1
21182 21187 1
21182 21188 1
21183 21185 1
21183 21186 1
21184 21189 1
21185 21187 1
21185 21188 1
21187 21189 1
21190 21193 1
21190 21194 1
21190 21198 1
21190 21201 1
21191 21195 1
21191 21196 1
21191 21199 1
21192 21197 1
21192 21198 1
21192 21201 1
21193 21195 1
21193 21196 1
21193 21200 1
21194 21199 1
21194 21200 1
21195 21197 1
21195 21198 1
21196 21201 1
21197 21199 1
21197 21200 1
21199 21201 1
21202 21205 1
21202 21206 1
21202 21210 1
21202 21213 1
21203 21207 1
21203 21208 1
21203 21211 1
21204 21209 1
21204 21210 1
21204 21213 1
21205 21207 1
21205 21208 1
21205 21212 1
21206 21211 1
21206 21212 1
21207 21209 1
21207 21210 1
21208 21213 1
21209 21211 1
21209 21212 1
21211 21213 1
21214 21217 1
21214 21218 1
21214 21222 1
21214 21225 1
21215 21219 1
21215 21220 1
21215 21223 1
21216 21221 1
21216 21222 1
21216 21225 1
21217 21219 1
21217 21220 1
21217 21224 1
21218 21223 1
21218 21224 1
21219 21221 1
21219 21222 1
21220 21225 1
21221 21223 1
21221 21224 1
21223 21225 1
21226 21229 1
21226 21230 1
21226 21234 1
21226 21237 1
21227 21231 1
21227 21232 1
21227 21235 1
21228 21233 1
21228 21234 1
21228 21237 1
21229 21231 1
21229 21232 1
21229 21236 1
21230 21235 1
21230 21236 1
21231 21233 1
21231 21234 1
21232 21237 1
21233 21235 1
21233 21236 1
21235 21237 1
21238 21241 1
21238 21242 1
21238 21246 1
21238 21249 1
21239 21243 1
21239 21244 1
21239 21247 1
21240 21245 1
21240 21246 1
21240 21249 1
21241 21243 1
21241 21244 1
21241 21248 1
21242 21247 1
21242 21248 1
21243 21245 1
21243 21246 1
21244 21249 1
21245 21247 1
21245 21248 1
21247 21249 1
21250 21253 1
21250 21254 1
21250 21258 1
21250 21261 1
21251 21255 1
21251 21256 1
21251 21259 1
21252 21257 1
21252 21258 1
21252 21261 1
21253 21255 1
21253 21256 1
21253 21260 1
21254 21259 1
21254 21260 1
21255 21257 1
21255 21258 1
21256 21261 1
21257 21259 1
21257 21260 1
21259 21261 1
21262 21265 1
21262 21266 1
21262 21270 1
21262 21273 1
21263 21267 1
21263 21268 1
21263 21271 1
21264 21269 1
21264 21270 1
21264 21273 1
21265 21267 1
21265 21268 1
21265 21272 1
21266 21271 1
21266 21272 1
21267 21269 1
21267 21270 1
21268 21273 1
21269 21271 1
21269 21272 1
21271 21273 1
21274 21277 1
21274 21278 1
21274 21282 1
21274 21285 1
21275 21279 1
21275 21280 1
21275 21283 1
21276 21281 1
21276 21282 1
21276 21285 1
21277 21279 1
21277 21280 1
21277 21284 1
21278 21283 1
21278 21284 1
21279 21281 1
21279 21282 1
21280 21285 1
21281 21283 1
21281 21284 1
21283 21285 1
21286 21289 1
21286 21290 1
21286 21294 1
21286 21297 1
21287 21291 1
21287 21292 1
21287 21295 1
21288 21293 1
21288 21294 1
21288 21297 1
21289 21291 1
21289 21292 1
21289 21296 1
21290 21295 1
21290 21296 1
21291 21293 1
21291 21294 1
21292 21297 1
21293 21295 1
21293 21296 1
21295 21297 1
21298 21301 1
21298 21302 1
21298 21306 1
21298 21309 1
21299 21303 1
21299 21304 1
21299 21307 1
21300 21305 1
21300 21306 1
21300 21309 1
21301 21303 1
21301 21304 1
21301 21308 1
21302 21307 1
21302 21308 1
21303 21305 1
21303 21306 1
21304 21309 1
21305 21307 1
21305 21308 1
21307 21309 1
21310 21313 1
21310 21314 1
21310 21318 1
21310 21321 1
21311 21315 1
21311 21316 1
21311 21319 1
21312 21317 1
21312 21318 1
21312 21321 1
21313 21315 1
21313 21316 1
21313 21320 1
21314 21319 1
21314 21320 1
21315 21317 1
21315 21318 1
21316 21321 1
21317 21319 1
21317 21320 1
21319 21321 1
21322 21325 1
21322 21326 1
21322 21330 1
21322 21333 1
21323 21327 1
21323 21328 1
21323 21331 1
21324 21329 1
21324 21330 1
21324 21333 1
21325 21327 1
21325 21328 1
21325 21332 1
21326 21331 1
21326 21332 1
21327 21329 1
21327 21330 1
21328 21333 1
21329 21331 1
21329 21332 1
21331 21333 1
21334 21337 1
21334 21338 1
21334 21342 1
21334 21345 1
21335 21339 1
21335 21340 1
21335 21343 1
21336 21341 1
21336 21342 1
21336 21345 1
21337 21339 1
21337 21340 1
21337 21344 1
21338 21343 1
21338 21344 1
21339 21341 1
21339 21342 1
21340 21345 1
21341 21343 1
21341 21344 1
21343 21345 1
21346 21349 1
21346 21350 1
21346 21354 1
21346 21357 1
21347 21351 1
21347 21352 1
21347 21355 1
21348 21353 1
21348 21354 1
21348 21357 1
21349 21351 1
21349 21352 1
21349 21356 1
21350 21355 1
21350 21356 1
21351 21353 1
21351 21354 1
21352 21357 1
21353 21355 1
21353 21356 1
21355 21357 1
21358 21361 1
21358 21362 1
21358 21366 1
21358 21369 1
21359 21363 1
21359 21364 1
21359 21367 1
21360 21365 1
21360 21366 1
21360 21369 1
21361 21363 1
21361 21364 1
21361 21368 1
21362 21367 1
21362 21368 1
21363 21365 1
21363 21366 1
21364 21369 1
21365 21367 1
21365 21368 1
21367 21369 1
21370 21373 1
21370 21374 1
21370 21378 1
21370 21381 1
21371 21375 1
21371 21376 1
21371 21379 1
21372 21377 1
21372 21378 1
21372 21381 1
21373 21375 1
21373 21376 1
21373 21380 1
21374 21379 1
21374 21380 1
21375 21377 1
21375 21378 1
21376 21381 1
21377 21379 1
21377 21380 1
21379 21381 1
21382 21385 1
21382 21386 1
21382 21390 1
21382 21393 1
21383 21387 1
21383 21388 1
21383 21391 1
21384 21389 1
21384 21390 1
21384 21393 1
21385 21387 1
21385 21388 1
21385 21392 1
21386 21391 1
21386 21392 1
21387 21389 1
21387 21390 1
21388 21393 1
21389 21391 1
21389 21392 1
21391 21393 1
21394 21397 1
21394 21398 1
21394 21402 1
21394 21405 1
21395 21399 1
21395 21400 1
21395 21403 1
21396 21401 1
21396 21402 1
21396 21405 1
21397 21399 1
21397 21400 1
21397 21404 1
21398 21403 1
21398 21404 1
21399 21401 1
21399 21402 1
21400 21405 1
21401 21403 1
21401 21404 1
21403 21405 1
21406 21409 1
21406 21410 1
21406 21414 1
21406 21417 1
21407 21411 1
21407 21412 1
21407 21415 1
21408 21413 1
21408 21414 1
21408 21417 1
21409 21411 1
21409 21412 1
21409 21416 1
21410 21415 1
21410 21416 1
21411 21413 1
21411 21414 1
21412 21417 1
21413 21415 1
21413 21416 1
21415 21417 1
21418 21421 1
21418 21422 1
21418 21426 1
21418 21429 1
21419 21423 1
21419 21424 1
21419 21427 1
21420 21425 1
21420 21426 1
21420 21429 1
21421 21423 1
21421 21424 1
21421 21428 1
21422 21427 1
21422 21428 1
21423 21425 1
21423 21426 1
21424 21429 1
21425 21427 1
21425 21428 1
21427 21429 1
21430 21433 1
21430 21434 1
21430 21438 1
21430 21441 1
21431 21435 1
21431 21436 1
21431 21439 1
21432 21437 1
21432 21438 1
21432 21441 1
21433 21435 1
21433 21436 1
21433 21440 1
21434 21439 1
21434 21440 1
21435 21437 1
21435 21438 1
21436 21441 1
21437 21439 1
21437 21440 1
21439 21441 1
21442 21445 1
21442 21446 1
21442 21450 1
21442 21453 1
21443 21447 1
21443 21448 1
21443 21451 1
21444 21449 1
21444 21450 1
21444 21453 1
21445 21447 1
21445 21448 1
21445 21452 1
21446 21451 1
21446 21452 1
21447 21449 1
21447 21450 1
21448 21453 1
21449 21451 1
21449 21452 1
21451 21453 1
21454 21457 1
21454 21458 1
21454 21462 1
21454 21465 1
21455 21459 1
21455 21460 1
21455 21463 1
21456 21461 1
21456 21462 1
21456 21465 1
21457 21459 1
21457 21460 1
21457 21464 1
21458 21463 1
21458 21464 1
21459 21461 1
21459 21462 1
21460 21465 1
21461 21463 1
21461 21464 1
21463 21465 1
21466 21469 1
21466 21470 1
21466 21474 1
21466 21477 1
21467 21471 1
21467 21472 1
21467 21475 1
21468 21473 1
21468 21474 1
21468 21477 1
21469 21471 1
21469 21472 1
21469 21476 1
21470 21475 1
21470 21476 1
21471 21473 1
21471 21474 1
21472 21477 1
21473 21475 1
21473 21476 1
21475 21477 1
21478 21481 1
21478 21482 1
21478 21486 1
21478 21489 1
21479 21483 1
21479 21484 1
21479 21487 1
21480 21485 1
21480 21486 1
21480 21489 1
21481 21483 1
21481 21484 1
21481 21488 1
21482 21487 1
21482 21488 1
21483 21485 1
21483 21486 1
21484 21489 1
21485 21487 1
21485 21488 1
21487 21489 1
21490 21493 1
21490 21494 1
21490 21498 1
21490 21501 1
21491 21495 1
21491 21496 1
21491 21499 1
21492 21497 1
21492 21498 1
21492 21501 1
21493 21495 1
21493 21496 1
21493 21500 1
21494 21499 1
21494 21500 1
21495 21497 1
21495 21498 1
21496 21501 1
21497 21499 1
21497 21500 1
21499 21501 1
21502 21505 1
21502 21506 1
21502 21510 1
21502 21513 1
21503 21507 1
21503 21508 1
21503 21511 1
21504 21509 1
21504 21510 1
21504 21513 1
21505 21507 1
21505 21508 1
21505 21512 1
21506 21511 1
21506 21512 1
21507 21509 1
21507 21510 1
21508 21513 1
21509 21511 1
21509 21512 1
21511 21513 1
21514 21517 1
21514 21518 1
21514 21522 1
21514 21525 1
21515 21519 1
21515 21520 1
21515 21523 1
21516 21521 1
21516 21522 1
21516 21525 1
21517 21519 1
21517 21520 1
21517 21524 1
21518 21523 1
21518 21524 1
21519 21521 1
21519 21522 1
21520 21525 1
21521 21523 1
21521 21524 1
21523 21525 1
21526 21529 1
21526 21530 1
21526 21534 1
21526 21537 1
21527 21531 1
21527 21532 1
21527 21535 1
21528 21533 1
21528 21534 1
21528 21537 1
21529 21531 1
21529 21532 1
21529 21536 1
21530 21535 1
21530 21536 1
21531 21533 1
21531 21534 1
21532 21537 1
21533 21535 1
21533 21536 1
21535 21537 1
21538 21541 1
21538 21542 1
21538 21546 1
21538 21549 1
21539 21543 1
21539 21544 1
21539 21547 1
21540 21545 1
21540 21546 1
21540 21549 1
21541 21543 1
21541 21544 1
21541 21548 1
21542 21547 1
21542 21548 1
21543 21545 1
21543 21546 1
21544 21549 1
21545 21547 1
21545 21548 1
21547 21549 1
21550 21553 1
21550 21554 1
21550 21558 1
21550 21561 1
21551 21555 1
21551 21556 1
21551 21559 1
21552 21557 1
21552 21558 1
21552 21561 1
21553 21555 1
21553 21556 1
21553 21560 1
21554 21559 1
21554 21560 1
21555 21557 1
21555 21558 1
21556 21561 1
21557 21559 1
21557 21560 1
21559 21561 1
21562 21565 1
21562 21566 1
21562 21570 1
21562 21573 1
21563 21567 1
21563 21568 1
21563 21571 1
21564 21569 1
21564 21570 1
21564 21573 1
21565 21567 1
21565 21568 1
21565 21572 1
21566 21571 1
21566 21572 1
21567 21569 1
21567 21570 1
21568 21573 1
21569 21571 1
21569 21572 1
21571 21573 1
21574 21577 1
21574 21578 1
21574 21582 1
21574 21585 1
21575 21579 1
21575 21580 1
21575 21583 1
21576 21581 1
21576 21582 1
21576 21585 1
21577 21579 1
21577 21580 1
21577 21584 1
21578 21583 1
21578 21584 1
21579 21581 1
21579 21582 1
21580 21585 1
21581 21583 1
21581 21584 1
21583 21585 1
21586 21589 1
21586 21590 1
21586 21594 1
21586 21597 1
21587 21591 1
21587 21592 1
21587 21595 1
21588 21593 1
21588 21594 1
21588 21597 1
21589 21591 1
21589 21592 1
21589 21596 1
21590 21595 1
21590 21596 1
21591 21593 1
21591 21594 1
21592 21597 1
21593 21595 1
21593 21596 1
21595 21597 1
21598 21601 1
21598 21602 1
21598 21606 1
21598 21609 1
21599 21603 1
21599 21604 1
21599 21607 1
21600 21605 1
21600 21606 1
21600 21609 1
21601 21603 1
21601 21604 1
21601 21608 1
21602 21607 1
21602 21608 1
21603 21605 1
21603 21606 1
21604 21609 1
21605 21607 1
21605 21608 1
21607 21609 1
21610 21613 1
21610 21614 1
21610 21618 1
21610 21621 1
21611 21615 1
21611 21616 1
21611 21619 1
21612 21617 1
21612 21618 1
21612 21621 1
21613 21615 1
21613 21616 1
21613 21620 1
21614 21619 1
21614 21620 1
21615 21617 1
21615 21618 1
21616 21621 1
21617 21619 1
21617 21620 1
21619 21621 1
21622 21625 1
21622 21626 1
21622 21630 1
21622 21633 1
21623 21627 1
21623 21628 1
21623 21631 1
21624 21629 1
21624 21630 1
21624 21633 1
21625 21627 1
21625 21628 1
21625 21632 1
21626 21631 1
21626 21632 1
21627 21629 1
21627 21630 1
21628 21633 1
21629 21631 1
21629 21632 1
21631 21633 1
21634 21637 1
21634 21638 1
21634 21642 1
21634 21645 1
21635 21639 1
21635 21640 1
21635 21643 1
21636 21641 1
21636 21642 1
21636 21645 1
21637 21639 1
21637 21640 1
21637 21644 1
21638 21643 1
21638 21644 1
21639 21641 1
21639 21642 1
21640 21645 1
21641 21643 1
21641 21644 1
21643 21645 1
21646 21649 1
21646 21650 1
21646 21654 1
21646 21657 1
21647 21651 1
21647 21652 1
21647 21655 1
21648 21653 1
21648 21654 1
21648 21657 1
21649 21651 1
21649 21652 1
21649 21656 1
21650 21655 1
21650 21656 1
21651 21653 1
21651 21654 1
21652 21657 1
21653 21655 1
21653 21656 1
21655 21657 1
21658 21661 1
21658 21662 1
21658 21666 1
21658 21669 1
21659 21663 1
21659 21664 1
21659 21667 1
21660 21665 1
21660 21666 1
21660 21669 1
21661 21663 1
21661 21664 1
21661 21668 1
21662 21667 1
21662 21668 1
21663 21665 1
21663 21666 1
21664 21669 1
21665 21667 1
21665 21668 1
21667 21669 1
21670 21673 1
21670 21674 1
21670 21678 1
21670 21681 1
21671 21675 1
21671 21676 1
21671 21679 1
21672 21677 1
21672 21678 1
21672 21681 1
21673 21675 1
21673 21676 1
21673 21680 1
21674 21679 1
21674 21680 1
21675 21677 1
21675 21678 1
21676 21681 1
21677 21679 1
21677 21680 1
21679 21681 1
21682 21685 1
21682 21686 1
21682 21690 1
21682 21693 1
21683 21687 1
21683 21688 1
21683 21691 1
21684 21689 1
21684 21690 1
21684 21693 1
21685 21687 1
21685 21688 1
21685 21692 1
21686 21691 1
21686 21692 1
21687 21689 1
21687 21690 1
21688 21693 1
21689 21691 1
21689 21692 1
21691 21693 1
21694 21697 1
21694 21698 1
21694 21702 1
21694 21705 1
21695 21699 1
21695 21700 1
21695 21703 1
21696 21701 1
21696 21702 1
21696 21705 1
21697 21699 1
21697 21700 1
21697 21704 1
21698 21703 1
21698 21704 1
21699 21701 1
21699 21702 1
21700 21705 1
21701 21703 1
21701 21704 1
21703 21705 1
21706 21709 1
21706 21710 1
21706 21714 1
21706 21717 1
21707 21711 1
21707 21712 1
21707 21715 1
21708 21713 1
21708 21714 1
21708 21717 1
21709 21711 1
21709 21712 1
21709 21716 1
21710 21715 1
21710 21716 1
21711 21713 1
21711 21714 1
21712 21717 1
21713 21715 1
21713 21716 1
21715 21717 1
21718 21721 1
21718 21722 1
21718 21726 1
21718 21729 1
21719 21723 1
21719 21724 1
21719 21727 1
21720 21725 1
21720 21726 1
21720 21729 1
21721 21723 1
21721 21724 1
21721 21728 1
21722 21727 1
21722 21728 1
21723 21725 1
21723 21726 1
21724 21729 1
21725 21727 1
21725 21728 1
21727 21729 1
21730 21733 1
21730 21734 1
21730 21738 1
21730 21741 1
21731 21735 1
21731 21736 1
21731 21739 1
21732 21737 1
21732 21738 1
21732 21741 1
21733 21735 1
21733 21736 1
21733 21740 1
21734 21739 1
21734 21740 1
21735 21737 1
21735 21738 1
21736 21741 1
21737 21739 1
21737 21740 1
21739 21741 1
21742 21745 1
21742 21746 1
21742 21750 1
21742 21753 1
21743 21747 1
21743 21748 1
21743 21751 1
21744 21749 1
21744 21750 1
21744 21753 1
21745 21747 1
21745 21748 1
21745 21752 1
21746 21751 1
21746 21752 1
21747 21749 1
21747 21750 1
21748 21753 1
21749 21751 1
21749 21752 1
21751 21753 1
21754 21757 1
21754 21758 1
21754 21762 1
21754 21765 1
21755 21759 1
21755 21760 1
21755 21763 1
21756 21761 1
21756 21762 1
21756 21765 1
21757 21759 1
21757 21760 1
21757 21764 1
21758 21763 1
21758 21764 1
21759 21761 1
21759 21762 1
21760 21765 1
21761 21763 1
21761 21764 1
21763 21765 1
21766 21769 1
21766 21770 1
21766 21774 1
21766 21777 1
21767 21771 1
21767 21772 1
21767 21775 1
21768 21773 1
21768 21774 1
21768 21777 1
21769 21771 1
21769 21772 1
21769 21776 1
21770 21775 1
21770 21776 1
21771 21773 1
21771 21774 1
21772 21777 1
21773 21775 1
21773 21776 1
21775 21777 1
21778 21781 1
21778 21782 1
21778 21786 1
21778 21789 1
21779 21783 1
21779 21784 1
21779 21787 1
21780 21785 1
21780 21786 1
21780 21789 1
21781 21783 1
21781 21784 1
21781 21788 1
21782 21787 1
21782 21788 1
21783 21785 1
21783 21786 1
21784 21789 1
21785 21787 1
21785 21788 1
21787 21789 1
21790 21793 1
21790 21794 1
21790 21798 1
21790 21801 1
21791 21795 1
21791 21796 1
21791 21799 1
21792 21797 1
21792 21798 1
21792 21801 1
21793 21795 1
21793 21796 1
21793 21800 1
21794 21799 1
21794 21800 1
21795 21797 1
21795 21798 1
21796 21801 1
21797 21799 1
21797 21800 1
21799 21801 1
21802 21805 1
21802 21806 1
21802 21810 1
21802 21813 1
21803 21807 1
21803 21808 1
21803 21811 1
21804 21809 1
21804 21810 1
21804 21813 1
21805 21807 1
21805 21808 1
21805 21812 1
21806 21811 1
21806 21812 1
21807 21809 1
21807 21810 1
21808 21813 1
21809 21811 1
21809 21812 1
21811 21813 1
21814 21817 1
21814 21818 1
21814 21822 1
21814 21825 1
21815 21819 1
21815 21820 1
21815 21823 1
21816 21821 1
21816 21822 1
21816 21825 1
21817 21819 1
21817 21820 1
21817 21824 1
21818 21823 1
21818 21824 1
21819 21821 1
21819 21822 1
21820 21825 1
21821 21823 1
21821 21824 1
21823 21825 1
21826 21829 1
21826 21830 1
21826 21834 1
21826 21837 1
21827 21831 1
21827 21832 1
21827 21835 1
21828 21833 1
21828 21834 1
21828 21837 1
21829 21831 1
21829 21832 1
21829 21836 1
21830 21835 1
21830 21836 1
21831 21833 1
21831 21834 1
21832 21837 1
21833 21835 1
21833 21836 1
21835 21837 1
21838 21841 1
21838 21842 1
21838 21846 1
21838 21849 1
21839 21843 1
21839 21844 1
21839 21847 1
21840 21845 1
21840 21846 1
21840 21849 1
21841 21843 1
21841 21844 1
21841 21848 1
21842 21847 1
21842 21848 1
21843 21845 1
21843 21846 1
21844 21849 1
21845 21847 1
21845 21848 1
21847 21849 1
21850 21853 1
21850 21854 1
21850 21858 1
21850 21861 1
21851 21855 1
21851 21856 1
21851 21859 1
21852 21857 1
21852 21858 1
21852 21861 1
21853 21855 1
21853 21856 1
21853 21860 1
21854 21859 1
21854 21860 1
21855 21857 1
21855 21858 1
21856 21861 1
21857 21859 1
21857 21860 1
21859 21861 1
21862 21865 1
21862 21866 1
21862 21870 1
21862 21873 1
21863 21867 1
21863 21868 1
21863 21871 1
21864 21869 1
21864 21870 1
21864 21873 1
21865 21867 1
21865 21868 1
21865 21872 1
21866 21871 1
21866 21872 1
21867 21869 1
21867 21870 1
21868 21873 1
21869 21871 1
21869 21872 1
21871 21873 1
21874 21877 1
21874 21878 1
21874 21882 1
21874 21885 1
21875 21879 1
21875 21880 1
21875 21883 1
21876 21881 1
21876 21882 1
21876 21885 1
21877 21879 1
21877 21880 1
21877 21884 1
21878 21883 1
21878 21884 1
21879 21881 1
21879 21882 1
21880 21885 1
21881 21883 1
21881 21884 1
21883 21885 1
21886 21889 1
21886 21890 1
21886 21894 1
21886 21897 1
21887 21891 1
21887 21892 1
21887 21895 1
21888 21893 1
21888 21894 1
21888 21897 1
21889 21891 1
21889 21892 1
21889 21896 1
21890 21895 1
21890 21896 1
21891 21893 1
21891 21894 1
21892 21897 1
21893 21895 1
21893 21896 1
21895 21897 1
21898 21901 1
21898 21902 1
21898 21906 1
21898 21909 1
21899 21903 1
21899 21904 1
21899 21907 1
21900 21905 1
21900 21906 1
21900 21909 1
21901 21903 1
21901 21904 1
21901 21908 1
21902 21907 1
21902 21908 1
21903 21905 1
21903 21906 1
21904 21909 1
21905 21907 1
21905 21908 1
21907 21909 1
21910 21913 1
21910 21914 1
21910 21918 1
21910 21921 1
21911 21915 1
21911 21916 1
21911 21919 1
21912 21917 1
21912 21918 1
21912 21921 1
21913 21915 1
21913 21916 1
21913 21920 1
21914 21919 1
21914 21920 1
21915 21917 1
21915 21918 1
21916 21921 1
21917 21919 1
21917 21920 1
21919 21921 1
21922 21925 1
21922 21926 1
21922 21930 1
21922 21933 1
21923 21927 1
21923 21928 1
21923 21931 1
21924 21929 1
21924 21930 1
21924 21933 1
21925 21927 1
21925 21928 1
21925 21932 1
21926 21931 1
21926 21932 1
21927 21929 1
21927 21930 1
21928 21933 1
21929 21931 1
21929 21932 1
21931 21933 1
21934 21937 1
21934 21938 1
21934 21942 1
21934 21945 1
21935 21939 1
21935 21940 1
21935 21943 1
21936 21941 1
21936 21942 1
21936 21945 1
21937 21939 1
21937 21940 1
21937 21944 1
21938 21943 1
21938 21944 1
21939 21941 1
21939 21942 1
21940 21945 1
21941 21943 1
21941 21944 1
21943 21945 1
21946 21949 1
21946 21950 1
21946 21954 1
21946 21957 1
21947 21951 1
21947 21952 1
21947 21955 1
21948 21953 1
21948 21954 1
21948 21957 1
21949 21951 1
21949 21952 1
21949 21956 1
21950 21955 1
21950 21956 1
21951 21953 1
21951 21954 1
21952 21957 1
21953 21955 1
21953 21956 1
21955 21957 1
21958 21961 1
21958 21962 1
21958 21966 1
21958 21969 1
21959 21963 1
21959 21964 1
21959 21967 1
21960 21965 1
21960 21966 1
21960 21969 1
21961 21963 1
21961 21964 1
21961 21968 1
21962 21967 1
21962 21968 1
21963 21965 1
21963 21966 1
21964 21969 1
21965 21967 1
21965 21968 1
21967 21969 1
21970 21973 1
21970 21974 1
21970 21978 1
21970 21981 1
21971 21975 1
21971 21976 1
21971 21979 1
21972 21977 1
21972 21978 1
21972 21981 1
21973 21975 1
21973 21976 1
21973 21980 1
21974 21979 1
21974 21980 1
21975 21977 1
21975 21978 1
21976 21981 1
21977 21979 1
21977 21980 1
21979 21981 1
21982 21985 1
21982 21986 1
21982 21990 1
21982 21993 1
21983 21987 1
21983 21988 1
21983 21991 1
21984 21989 1
21984 21990 1
21984 21993 1
21985 21987 1
21985 21988 1
21985 21992 1
21986 21991 1
21986 21992 1
21987 21989 1
21987 21990 1
21988 21993 1
21989 21991 1
21989 21992 1
21991 21993 1
21994 21997 1
21994 21998 1
21994 22002 1
21994 22005 1
21995 21999 1
21995 22000 1
21995 22003 1
21996 22001 1
21996 22002 1
21996 22005 1
21997 21999 1
21997 22000 1
21997 22004 1
21998 22003 1
21998 22004 1
21999 22001 1
21999 22002 1
22000 22005 1
22001 22003 1
22001 22004 1
22003 22005 1
22006 22009 1
22006 22010 1
22006 22014 1
22006 22017 1
22007 22011 1
22007 22012 1
22007 22015 1
22008 22013 1
22008 22014 1
22008 22017 1
22009 22011 1
22009 22012 1
22009 22016 1
22010 22015 1
22010 22016 1
22011 22013 1
22011 22014 1
22012 22017 1
22013 22015 1
22013 22016 1
22015 22017 1
22018 22021 1
22018 22022 1
22018 22026 1
22018 22029 1
22019 22023 1
22019 22024 1
22019 22027 1
22020 22025 1
22020 22026 1
22020 22029 1
22021 22023 1
22021 22024 1
22021 22028 1
22022 22027 1
22022 22028 1
22023 22025 1
22023 22026 1
22024 22029 1
22025 22027 1
22025 22028 1
22027 22029 1
22030 22033 1
22030 22034 1
22030 22038 1
22030 22041 1
22031 22035 1
22031 22036 1
22031 22039 1
22032 22037 1
22032 22038 1
22032 22041 1
22033 22035 1
22033 22036 1
22033 22040 1
22034 22039 1
22034 22040 1
22035 22037 1
22035 22038 1
22036 22041 1
22037 22039 1
22037 22040 1
22039 22041 1
22042 22045 1
22042 22046 1
22042 22050 1
22042 22053 1
22043 22047 1
22043 22048 1
22043 22051 1
22044 22049 1
22044 22050 1
22044 22053 1
22045 22047 1
22045 22048 1
22045 22052 1
22046 22051 1
22046 22052 1
22047 22049 1
22047 22050 1
22048 22053 1
22049 22051 1
22049 22052 1
22051 22053 1
22054 22057 1
22054 22058 1
22054 22062 1
22054 22065 1
22055 22059 1
22055 22060 1
22055 22063 1
22056 22061 1
22056 22062 1
22056 22065 1
22057 22059 1
22057 22060 1
22057 22064 1
22058 22063 1
22058 22064 1
22059 22061 1
22059 22062 1
22060 22065 1
22061 22063 1
22061 22064 1
22063 22065 1
22066 22069 1
22066 22070 1
22066 22074 1
22066 22077 1
22067 22071 1
22067 22072 1
22067 22075 1
22068 22073 1
22068 22074 1
22068 22077 1
22069 22071 1
22069 22072 1
22069 22076 1
22070 22075 1
22070 22076 1
22071 22073 1
22071 22074 1
22072 22077 1
22073 22075 1
22073 22076 1
22075 22077 1
22078 22081 1
22078 22082 1
22078 22086 1
22078 22089 1
22079 22083 1
22079 22084 1
22079 22087 1
22080 22085 1
22080 22086 1
22080 22089 1
22081 22083 1
22081 22084 1
22081 22088 1
22082 22087 1
22082 22088 1
22083 22085 1
22083 22086 1
22084 22089 1
22085 22087 1
22085 22088 1
22087 22089 1
22090 22093 1
22090 22094 1
22090 22098 1
22090 22101 1
22091 22095 1
22091 22096 1
22091 22099 1
22092 22097 1
22092 22098 1
22092 22101 1
22093 22095 1
22093 22096 1
22093 22100 1
22094 22099 1
22094 22100 1
22095 22097 1
22095 22098 1
22096 22101 1
22097 22099 1
22097 22100 1
22099 22101 1
22102 22105 1
22102 22106 1
22102 22110 1
22102 22113 1
22103 22107 1
22103 22108 1
22103 22111 1
22104 22109 1
22104 22110 1
22104 22113 1
22105 22107 1
22105 22108 1
22105 22112 1
22106 22111 1
22106 22112 1
22107 22109 1
22107 22110 1
22108 22113 1
22109 22111 1
22109 22112 1
22111 22113 1
22114 22117 1
22114 22118 1
22114 22122 1
22114 22125 1
22115 22119 1
22115 22120 1
22115 22123 1
22116 22121 1
22116 22122 1
22116 22125 1
22117 22119 1
22117 22120 1
22117 22124 1
22118 22123 1
22118 22124 1
22119 22121 1
22119 22122 1
22120 22125 1
22121 22123 1
22121 22124 1
22123 22125 1
22126 22129 1
22126 22130 1
22126 22134 1
22126 22137 1
22127 22131 1
22127 22132 1
22127 22135 1
22128 22133 1
22128 22134 1
22128 22137 1
22129 22131 1
22129 22132 1
22129 22136 1
22130 22135 1
22130 22136 1
22131 22133 1
22131 22134 1
22132 22137 1
22133 22135 1
22133 22136 1
22135 22137 1
22138 22141 1
22138 22142 1
22138 22146 1
22138 22149 1
22139 22143 1
22139 22144 1
22139 22147 1
22140 22145 1
22140 22146 1
22140 22149 1
22141 22143 1
22141 22144 1
22141 22148 1
22142 22147 1
22142 22148 1
22143 22145 1
22143 22146 1
22144 22149 1
22145 22147 1
22145 22148 1
22147 22149 1
22150 22153 1
22150 22154 1
22150 22158 1
22150 22161 1
22151 22155 1
22151 22156 1
22151 22159 1
22152 22157 1
22152 22158 1
22152 22161 1
22153 22155 1
22153 22156 1
22153 22160 1
22154 22159 1
22154 22160 1
22155 22157 1
22155 22158 1
22156 22161 1
22157 22159 1
22157 22160 1
22159 22161 1
22162 22165 1
22162 22166 1
22162 22170 1
22162 22173 1
22163 22167 1
22163 22168 1
22163 22171 1
22164 22169 1
22164 22170 1
22164 22173 1
22165 22167 1
22165 22168 1
22165 22172 1
22166 22171 1
22166 22172 1
22167 22169 1
22167 22170 1
22168 22173 1
22169 22171 1
22169 22172 1
22171 22173 1
22174 22177 1
22174 22178 1
22174 22182 1
22174 22185 1
22175 22179 1
22175 22180 1
22175 22183 1
22176 22181 1
22176 22182 1
22176 22185 1
22177 22179 1
22177 22180 1
22177 22184 1
22178 22183 1
22178 22184 1
22179 22181 1
22179 22182 1
22180 22185 1
22181 22183 1
22181 22184 1
22183 22185 1
22186 22189 1
22186 22190 1
22186 22194 1
22186 22197 1
22187 22191 1
22187 22192 1
22187 22195 1
22188 22193 1
22188 22194 1
22188 22197 1
22189 22191 1
22189 22192 1
22189 22196 1
22190 22195 1
22190 22196 1
22191 22193 1
22191 22194 1
22192 22197 1
22193 22195 1
22193 22196 1
22195 22197 1
22198 22201 1
22198 22202 1
22198 22206 1
22198 22209 1
22199 22203 1
22199 22204 1
22199 22207 1
22200 22205 1
22200 22206 1
22200 22209 1
22201 22203 1
22201 22204 1
22201 22208 1
22202 22207 1
22202 22208 1
22203 22205 1
22203 22206 1
22204 22209 1
22205 22207 1
22205 22208 1
22207 22209 1
22210 22213 1
22210 22214 1
22210 22218 1
22210 22221 1
22211 22215 1
22211 22216 1
22211 22219 1
22212 22217 1
22212 22218 1
22212 22221 1
22213 22215 1
22213 22216 1
22213 22220 1
22214 22219 1
22214 22220 1
22215 22217 1
22215 22218 1
22216 22221 1
22217 22219 1
22217 22220 1
22219 22221 1
22222 22225 1
22222 22226 1
22222 22230 1
22222 22233 1
22223 22227 1
22223 22228 1
22223 22231 1
22224 22229 1
22224 22230 1
22224 22233 1
22225 22227 1
22225 22228 1
22225 22232 1
22226 22231 1
22226 22232 1
22227 22229 1
22227 22230 1
22228 22233 1
22229 22231 1
22229 22232 1
22231 22233 1
22234 22237 1
22234 22238 1
22234 22242 1
22234 22245 1
22235 22239 1
22235 22240 1
22235 22243 1
22236 22241 1
22236 22242 1
22236 22245 1
22237 22239 1
22237 22240 1
22237 22244 1
22238 22243 1
22238 22244 1
22239 22241 1
22239 22242 1
22240 22245 1
22241 22243 1
22241 22244 1
22243 22245 1
22246 22249 1
22246 22250 1
22246 22254 1
22246 22257 1
22247 22251 1
22247 22252 1
22247 22255 1
22248 22253 1
22248 22254 1
22248 22257 1
22249 22251 1
22249 22252 1
22249 22256 1
22250 22255 1
22250 22256 1
22251 22253 1
22251 22254 1
22252 22257 1
22253 22255 1
22253 22256 1
22255 22257 1
22258 22261 1
22258 22262 1
22258 22266 1
22258 22269 1
22259 22263 1
22259 22264 1
22259 22267 1
22260 22265 1
22260 22266 1
22260 22269 1
22261 22263 1
22261 22264 1
22261 22268 1
22262 22267 1
22262 22268 1
22263 22265 1
22263 22266 1
22264 22269 1
22265 22267 1
22265 22268 1
22267 22269 1
22270 22273 1
22270 22274 1
22270 22278 1
22270 22281 1
22271 22275 1
22271 22276 1
22271 22279 1
22272 22277 1
22272 22278 1
22272 22281 1
22273 22275 1
22273 22276 1
22273 22280 1
22274 22279 1
22274 22280 1
22275 22277 1
22275 22278 1
22276 22281 1
22277 22279 1
22277 22280 1
22279 22281 1
22282 22285 1
22282 22286 1
22282 22290 1
22282 22293 1
22283 22287 1
22283 22288 1
22283 22291 1
22284 22289 1
22284 22290 1
22284 22293 1
22285 22287 1
22285 22288 1
22285 22292 1
22286 22291 1
22286 22292 1
22287 22289 1
22287 22290 1
22288 22293 1
22289 22291 1
22289 22292 1
22291 22293 1
22294 22297 1
22294 22298 1
22294 22302 1
22294 22305 1
22295 22299 1
22295 22300 1
22295 22303 1
22296 22301 1
22296 22302 1
22296 22305 1
22297 22299 1
22297 22300 1
22297 22304 1
22298 22303 1
22298 22304 1
22299 22301 1
22299 22302 1
22300 22305 1
22301 22303 1
22301 22304 1
22303 22305 1
22306 22309 1
22306 22310 1
22306 22314 1
22306 22317 1
22307 22311 1
22307 22312 1
22307 22315 1
22308 22313 1
22308 22314 1
22308 22317 1
22309 22311 1
22309 22312 1
22309 22316 1
22310 22315 1
22310 22316 1
22311 22313 1
22311 22314 1
22312 22317 1
22313 22315 1
22313 22316 1
22315 22317 1
22318 22321 1
22318 22322 1
22318 22326 1
22318 22329 1
22319 22323 1
22319 22324 1
22319 22327 1
22320 22325 1
22320 22326 1
22320 22329 1
22321 22323 1
22321 22324 1
22321 22328 1
22322 22327 1
22322 22328 1
22323 22325 1
22323 22326 1
22324 22329 1
22325 22327 1
22325 22328 1
22327 22329 1
22330 22333 1
22330 22334 1
22330 22338 1
22330 22341 1
22331 22335 1
22331 22336 1
22331 22339 1
22332 22337 1
22332 22338 1
22332 22341 1
22333 22335 1
22333 22336 1
22333 22340 1
22334 22339 1
22334 22340 1
22335 22337 1
22335 22338 1
22336 22341 1
22337 22339 1
22337 22340 1
22339 22341 1
22342 22345 1
22342 22346 1
22342 22350 1
22342 22353 1
22343 22347 1
22343 22348 1
22343 22351 1
22344 22349 1
22344 22350 1
22344 22353 1
22345 22347 1
22345 22348 1
22345 22352 1
22346 22351 1
22346 22352 1
22347 22349 1
22347 22350 1
22348 22353 1
22349 22351 1
22349 22352 1
22351 22353 1
22354 22357 1
22354 22358 1
22354 22362 1
22354 22365 1
22355 22359 1
22355 22360 1
22355 22363 1
22356 22361 1
22356 22362 1
22356 22365 1
22357 22359 1
22357 22360 1
22357 22364 1
22358 22363 1
22358 22364 1
22359 22361 1
22359 22362 1
22360 22365 1
22361 22363 1
22361 22364 1
22363 22365 1
22366 22369 1
22366 22370 1
22366 22374 1
22366 22377 1
22367 22371 1
22367 22372 1
22367 22375 1
22368 22373 1
22368 22374 1
22368 22377 1
22369 22371 1
22369 22372 1
22369 22376 1
22370 22375 1
22370 22376 1
22371 22373 1
22371 22374 1
22372 22377 1
22373 22375 1
22373 22376 1
22375 22377 1
22378 22381 1
22378 22382 1
22378 22386 1
22378 22389 1
22379 22383 1
22379 22384 1
22379 22387 1
22380 22385 1
22380 22386 1
22380 22389 1
22381 22383 1
22381 22384 1
22381 22388 1
22382 22387 1
22382 22388 1
22383 22385 1
22383 22386 1
22384 22389 1
22385 22387 1
22385 22388 1
22387 22389 1
22390 22393 1
22390 22394 1
22390 22398 1
22390 22401 1
22391 22395 1
22391 22396 1
22391 22399 1
22392 22397 1
22392 22398 1
22392 22401 1
22393 22395 1
22393 22396 1
22393 22400 1
22394 22399 1
22394 22400 1
22395 22397 1
22395 22398 1
22396 22401 1
22397 22399 1
22397 22400 1
22399 22401 1
22402 22405 1
22402 22406 1
22402 22410 1
22402 22413 1
22403 22407 1
22403 22408 1
22403 22411 1
22404 22409 1
22404 22410 1
22404 22413 1
22405 22407 1
22405 22408 1
22405 22412 1
22406 22411 1
22406 22412 1
22407 22409 1
22407 22410 1
22408 22413 1
22409 22411 1
22409 22412 1
22411 22413 1
22414 22417 1
22414 22418 1
22414 22422 1
22414 22425 1
22415 22419 1
22415 22420 1
22415 22423 1
22416 22421 1
22416 22422 1
22416 22425 1
22417 22419 1
22417 22420 1
22417 22424 1
22418 22423 1
22418 22424 1
22419 22421 1
22419 22422 1
22420 22425 1
22421 22423 1
22421 22424 1
22423 22425 1
22426 22429 1
22426 22430 1
22426 22434 1
22426 22437 1
22427 22431 1
22427 22432 1
22427 22435 1
22428 22433 1
22428 22434 1
22428 22437 1
22429 22431 1
22429 22432 1
22429 22436 1
22430 22435 1
22430 22436 1
22431 22433 1
22431 22434 1
22432 22437 1
22433 22435 1
22433 22436 1
22435 22437 1
22438 22441 1
22438 22442 1
22438 22446 1
22438 22449 1
22439 22443 1
22439 22444 1
22439 22447 1
22440 22445 1
22440 22446 1
22440 22449 1
22441 22443 1
22441 22444 1
22441 22448 1
22442 22447 1
22442 22448 1
22443 22445 1
22443 22446 1
22444 22449 1
22445 22447 1
22445 22448 1
22447 22449 1
22450 22453 1
22450 22454 1
22450 22458 1
22450 22461 1
22451 22455 1
22451 22456 1
22451 22459 1
22452 22457 1
22452 22458 1
22452 22461 1
22453 22455 1
22453 22456 1
22453 22460 1
22454 22459 1
22454 22460 1
22455 22457 1
22455 22458 1
22456 22461 1
22457 22459 1
22457 22460 1
22459 22461 1
22462 22465 1
22462 22466 1
22462 22470 1
22462 22473 1
22463 22467 1
22463 22468 1
22463 22471 1
22464 22469 1
22464 22470 1
22464 22473 1
22465 22467 1
22465 22468 1
22465 22472 1
22466 22471 1
22466 22472 1
22467 22469 1
22467 22470 1
22468 22473 1
22469 22471 1
22469 22472 1
22471 22473 1
22474 22477 1
22474 22478 1
22474 22482 1
22474 22485 1
22475 22479 1
22475 22480 1
22475 22483 1
22476 22481 1
22476 22482 1
22476 22485 1
22477 22479 1
22477 22480 1
22477 22484 1
22478 22483 1
22478 22484 1
22479 22481 1
22479 22482 1
22480 22485 1
22481 22483 1
22481 22484 1
22483 22485 1
22486 22489 1
22486 22490 1
22486 22494 1
22486 22497 1
22487 22491 1
22487 22492 1
22487 22495 1
22488 22493 1
22488 22494 1
22488 22497 1
22489 22491 1
22489 22492 1
22489 22496 1
22490 22495 1
22490 22496 1
22491 22493 1
22491 22494 1
22492 22497 1
22493 22495 1
22493 22496 1
22495 22497 1
22498 22501 1
22498 22502 1
22498 22506 1
22498 22509 1
22499 22503 1
22499 22504 1
22499 22507 1
22500 22505 1
22500 22506 1
22500 22509 1
22501 22503 1
22501 22504 1
22501 22508 1
22502 22507 1
22502 22508 1
22503 22505 1
22503 22506 1
22504 22509 1
22505 22507 1
22505 22508 1
22507 22509 1
22510 22513 1
22510 22514 1
22510 22518 1
22510 22521 1
22511 22515 1
22511 22516 1
22511 22519 1
22512 22517 1
22512 22518 1
22512 22521 1
22513 22515 1
22513 22516 1
22513 22520 1
22514 22519 1
22514 22520 1
22515 22517 1
22515 22518 1
22516 22521 1
22517 22519 1
22517 22520 1
22519 22521 1
22522 22525 1
22522 22526 1
22522 22530 1
22522 22533 1
22523 22527 1
22523 22528 1
22523 22531 1
22524 22529 1
22524 22530 1
22524 22533 1
22525 22527 1
22525 22528 1
22525 22532 1
22526 22531 1
22526 22532 1
22527 22529 1
22527 22530 1
22528 22533 1
22529 22531 1
22529 22532 1
22531 22533 1
22534 22537 1
22534 22538 1
22534 22542 1
22534 22545 1
22535 22539 1
22535 22540 1
22535 22543 1
22536 22541 1
22536 22542 1
22536 22545 1
22537 22539 1
22537 22540 1
22537 22544 1
22538 22543 1
22538 22544 1
22539 22541 1
22539 22542 1
22540 22545 1
22541 22543 1
22541 22544 1
22543 22545 1
22546 22549 1
22546 22550 1
22546 22554 1
22546 22557 1
22547 22551 1
22547 22552 1
22547 22555 1
22548 22553 1
22548 22554 1
22548 22557 1
22549 22551 1
22549 22552 1
22549 22556 1
22550 22555 1
22550 22556 1
22551 22553 1
22551 22554 1
22552 22557 1
22553 22555 1
22553 22556 1
22555 22557 1
22558 22561 1
22558 22562 1
22558 22566 1
22558 22569 1
22559 22563 1
22559 22564 1
22559 22567 1
22560 22565 1
22560 22566 1
22560 22569 1
22561 22563 1
22561 22564 1
22561 22568 1
22562 22567 1
22562 22568 1
22563 22565 1
22563 22566 1
22564 22569 1
22565 22567 1
22565 22568 1
22567 22569 1
22570 22573 1
22570 22574 1
22570 22578 1
22570 22581 1
22571 22575 1
22571 22576 1
22571 22579 1
22572 22577 1
22572 22578 1
22572 22581 1
22573 22575 1
22573 22576 1
22573 22580 1
22574 22579 1
22574 22580 1
22575 22577 1
22575 22578 1
22576 22581 1
22577 22579 1
22577 22580 1
22579 22581 1
22582 22585 1
22582 22586 1
22582 22590 1
22582 22593 1
22583 22587 1
22583 22588 1
22583 22591 1
22584 22589 1
22584 22590 1
22584 22593 1
22585 22587 1
22585 22588 1
22585 22592 1
22586 22591 1
22586 22592 1
22587 22589 1
22587 22590 1
22588 22593 1
22589 22591 1
22589 22592 1
22591 22593 1
22594 22597 1
22594 22598 1
22594 22602 1
22594 22605 1
22595 22599 1
22595 22600 1
22595 22603 1
22596 22601 1
22596 22602 1
22596 22605 1
22597 22599 1
22597 22600 1
22597 22604 1
22598 22603 1
22598 22604 1
22599 22601 1
22599 22602 1
22600 22605 1
22601 22603 1
22601 22604 1
22603 22605 1
22606 22609 1
22606 22610 1
22606 22614 1
22606 22617 1
22607 22611 1
22607 22612 1
22607 22615 1
22608 22613 1
22608 22614 1
22608 22617 1
22609 22611 1
22609 22612 1
22609 22616 1
22610 22615 1
22610 22616 1
22611 22613 1
22611 22614 1
22612 22617 1
22613 22615 1
22613 22616 1
22615 22617 1
22618 22621 1
22618 22622 1
22618 22626 1
22618 22629 1
22619 22623 1
22619 22624 1
22619 22627 1
22620 22625 1
22620 22626 1
22620 22629 1
22621 22623 1
22621 22624 1
22621 22628 1
22622 22627 1
22622 22628 1
22623 22625 1
22623 22626 1
22624 22629 1
22625 22627 1
22625 22628 1
22627 22629 1
22630 22633 1
22630 22634 1
22630 22638 1
22630 22641 1
22631 22635 1
22631 22636 1
22631 22639 1
22632 22637 1
22632 22638 1
22632 22641 1
22633 22635 1
22633 22636 1
22633 22640 1
22634 22639 1
22634 22640 1
22635 22637 1
22635 22638 1
22636 22641 1
22637 22639 1
22637 22640 1
22639 22641 1
22642 22645 1
22642 22646 1
22642 22650 1
22642 22653 1
22643 22647 1
22643 22648 1
22643 22651 1
22644 22649 1
22644 22650 1
22644 22653 1
22645 22647 1
22645 22648 1
22645 22652 1
22646 22651 1
22646 22652 1
22647 22649 1
22647 22650 1
22648 22653 1
22649 22651 1
22649 22652 1
22651 22653 1
22654 22657 1
22654 22658 1
22654 22662 1
22654 22665 1
22655 22659 1
22655 22660 1
22655 22663 1
22656 22661 1
22656 22662 1
22656 22665 1
22657 22659 1
22657 22660 1
22657 22664 1
22658 22663 1
22658 22664 1
22659 22661 1
22659 22662 1
22660 22665 1
22661 22663 1
22661 22664 1
22663 22665 1
22666 22669 1
22666 22670 1
22666 22674 1
22666 22677 1
22667 22671 1
22667 22672 1
22667 22675 1
22668 22673 1
22668 22674 1
22668 22677 1
22669 22671 1
22669 22672 1
22669 22676 1
22670 22675 1
22670 22676 1
22671 22673 1
22671 22674 1
22672 22677 1
22673 22675 1
22673 22676 1
22675 22677 1
22678 22681 1
22678 22682 1
22678 22686 1
22678 22689 1
22679 22683 1
22679 22684 1
22679 22687 1
22680 22685 1
22680 22686 1
22680 22689 1
22681 22683 1
22681 22684 1
22681 22688 1
22682 22687 1
22682 22688 1
22683 22685 1
22683 22686 1
22684 22689 1
22685 22687 1
22685 22688 1
22687 22689 1
22690 22693 1
22690 22694 1
22690 22698 1
22690 22701 1
22691 22695 1
22691 22696 1
22691 22699 1
22692 22697 1
22692 22698 1
22692 22701 1
22693 22695 1
22693 22696 1
22693 22700 1
22694 22699 1
22694 22700 1
22695 22697 1
22695 22698 1
22696 22701 1
22697 22699 1
22697 22700 1
22699 22701 1
22702 22705 1
22702 22706 1
22702 22710 1
22702 22713 1
22703 22707 1
22703 22708 1
22703 22711 1
22704 22709 1
22704 22710 1
22704 22713 1
22705 22707 1
22705 22708 1
22705 22712 1
22706 22711 1
22706 22712 1
22707 22709 1
22707 22710 1
22708 22713 1
22709 22711 1
22709 22712 1
22711 22713 1
22714 22717 1
22714 22718 1
22714 22722 1
22714 22725 1
22715 22719 1
22715 22720 1
22715 22723 1
22716 22721 1
22716 22722 1
22716 22725 1
22717 22719 1
22717 22720 1
22717 22724 1
22718 22723 1
22718 22724 1
22719 22721 1
22719 22722 1
22720 22725 1
22721 22723 1
22721 22724 1
22723 22725 1
22726 22729 1
22726 22730 1
22726 22734 1
22726 22737 1
22727 22731 1
22727 22732 1
22727 22735 1
22728 22733 1
22728 22734 1
22728 22737 1
22729 22731 1
22729 22732 1
22729 22736 1
22730 22735 1
22730 22736 1
22731 22733 1
22731 22734 1
22732 22737 1
22733 22735 1
22733 22736 1
22735 22737 1
22738 22741 1
22738 22742 1
22738 22746 1
22738 22749 1
22739 22743 1
22739 22744 1
22739 22747 1
22740 22745 1
22740 22746 1
22740 22749 1
22741 22743 1
22741 22744 1
22741 22748 1
22742 22747 1
22742 22748 1
22743 22745 1
22743 22746 1
22744 22749 1
22745 22747 1
22745 22748 1
22747 22749 1
22750 22753 1
22750 22754 1
22750 22758 1
22750 22761 1
22751 22755 1
22751 22756 1
22751 22759 1
22752 22757 1
22752 22758 1
22752 22761 1
22753 22755 1
22753 22756 1
22753 22760 1
22754 22759 1
22754 22760 1
22755 22757 1
22755 22758 1
22756 22761 1
22757 22759 1
22757 22760 1
22759 22761 1
22762 22765 1
22762 22766 1
22762 22770 1
22762 22773 1
22763 22767 1
22763 22768 1
22763 22771 1
22764 22769 1
22764 22770 1
22764 22773 1
22765 22767 1
22765 22768 1
22765 22772 1
22766 22771 1
22766 22772 1
22767 22769 1
22767 22770 1
22768 22773 1
22769 22771 1
22769 22772 1
22771 22773 1
22774 22777 1
22774 22778 1
22774 22782 1
22774 22785 1
22775 22779 1
22775 22780 1
22775 22783 1
22776 22781 1
22776 22782 1
22776 22785 1
22777 22779 1
22777 22780 1
22777 22784 1
22778 22783 1
22778 22784 1
22779 22781 1
22779 22782 1
22780 22785 1
22781 22783 1
22781 22784 1
22783 22785 1
22786 22789 1
22786 22790 1
22786 22794 1
22786 22797 1
22787 22791 1
22787 22792 1
22787 22795 1
22788 22793 1
22788 22794 1
22788 22797 1
22789 22791 1
22789 22792 1
22789 22796 1
22790 22795 1
22790 22796 1
22791 22793 1
22791 22794 1
22792 22797 1
22793 22795 1
22793 22796 1
22795 22797 1
22798 22801 1
22798 22802 1
22798 22806 1
22798 22809 1
22799 22803 1
22799 22804 1
22799 22807 1
22800 22805 1
22800 22806 1
22800 22809 1
22801 22803 1
22801 22804 1
22801 22808 1
22802 22807 1
22802 22808 1
22803 22805 1
22803 22806 1
22804 22809 1
22805 22807 1
22805 22808 1
22807 22809 1
22810 22813 1
22810 22814 1
22810 22818 1
22810 22821 1
22811 22815 1
22811 22816 1
22811 22819 1
22812 22817 1
22812 22818 1
22812 22821 1
22813 22815 1
22813 22816 1
22813 22820 1
22814 22819 1
22814 22820 1
22815 22817 1
22815 22818 1
22816 22821 1
22817 22819 1
22817 22820 1
22819 22821 1
22822 22825 1
22822 22826 1
22822 22830 1
22822 22833 1
22823 22827 1
22823 22828 1
22823 22831 1
22824 22829 1
22824 22830 1
22824 22833 1
22825 22827 1
22825 22828 1
22825 22832 1
22826 22831 1
22826 22832 1
22827 22829 1
22827 22830 1
22828 22833 1
22829 22831 1
22829 22832 1
22831 22833 1
22834 22837 1
22834 22838 1
22834 22842 1
22834 22845 1
22835 22839 1
22835 22840 1
22835 22843 1
22836 22841 1
22836 22842 1
22836 22845 1
22837 22839 1
22837 22840 1
22837 22844 1
22838 22843 1
22838 22844 1
22839 22841 1
22839 22842 1
22840 22845 1
22841 22843 1
22841 22844 1
22843 22845 1
22846 22849 1
22846 22850 1
22846 22854 1
22846 22857 1
22847 22851 1
22847 22852 1
22847 22855 1
22848 22853 1
22848 22854 1
22848 22857 1
22849 22851 1
22849 22852 1
22849 22856 1
22850 22855 1
22850 22856 1
22851 22853 1
22851 22854 1
22852 22857 1
22853 22855 1
22853 22856 1
22855 22857 1
22858 22861 1
22858 22862 1
22858 22866 1
22858 22869 1
22859 22863 1
22859 22864 1
22859 22867 1
22860 22865 1
22860 22866 1
22860 22869 1
22861 22863 1
22861 22864 1
22861 22868 1
22862 22867 1
22862 22868 1
22863 22865 1
22863 22866 1
22864 22869 1
22865 22867 1
22865 22868 1
22867 22869 1
22870 22873 1
22870 22874 1
22870 22878 1
22870 22881 1
22871 22875 1
22871 22876 1
22871 22879 1
22872 22877 1
22872 22878 1
22872 22881 1
22873 22875 1
22873 22876 1
22873 22880 1
22874 22879 1
22874 22880 1
22875 22877 1
22875 22878 1
22876 22881 1
22877 22879 1
22877 22880 1
22879 22881 1
22882 22885 1
22882 22886 1
22882 22890 1
22882 22893 1
22883 22887 1
22883 22888 1
22883 22891 1
22884 22889 1
22884 22890 1
22884 22893 1
22885 22887 1
22885 22888 1
22885 22892 1
22886 22891 1
22886 22892 1
22887 22889 1
22887 22890 1
22888 22893 1
22889 22891 1
22889 22892 1
22891 22893 1
22894 22897 1
22894 22898 1
22894 22902 1
22894 22905 1
22895 22899 1
22895 22900 1
22895 22903 1
22896 22901 1
22896 22902 1
22896 22905 1
22897 22899 1
22897 22900 1
22897 22904 1
22898 22903 1
22898 22904 1
22899 22901 1
22899 22902 1
22900 22905 1
22901 22903 1
22901 22904 1
22903 22905 1
22906 22909 1
22906 22910 1
22906 22914 1
22906 22917 1
22907 22911 1
22907 22912 1
22907 22915 1
22908 22913 1
22908 22914 1
22908 22917 1
22909 22911 1
22909 22912 1
22909 22916 1
22910 22915 1
22910 22916 1
22911 22913 1
22911 22914 1
22912 22917 1
22913 22915 1
22913 22916 1
22915 22917 1
22918 22921 1
22918 22922 1
22918 22926 1
22918 22929 1
22919 22923 1
22919 22924 1
22919 22927 1
22920 22925 1
22920 22926 1
22920 22929 1
22921 22923 1
22921 22924 1
22921 22928 1
22922 22927 1
22922 22928 1
22923 22925 1
22923 22926 1
22924 22929 1
22925 22927 1
22925 22928 1
22927 22929 1
22930 22933 1
22930 22934 1
22930 22938 1
22930 22941 1
22931 22935 1
22931 22936 1
22931 22939 1
22932 22937 1
22932 22938 1
22932 22941 1
22933 22935 1
22933 22936 1
22933 22940 1
22934 22939 1
22934 22940 1
22935 22937 1
22935 22938 1
22936 22941 1
22937 22939 1
22937 22940 1
22939 22941 1
22942 22945 1
22942 22946 1
22942 22950 1
22942 22953 1
22943 22947 1
22943 22948 1
22943 22951 1
22944 22949 1
22944 22950 1
22944 22953 1
22945 22947 1
22945 22948 1
22945 22952 1
22946 22951 1
22946 22952 1
22947 22949 1
22947 22950 1
22948 22953 1
22949 22951 1
22949 22952 1
22951 22953 1
22954 22957 1
22954 22958 1
22954 22962 1
22954 22965 1
22955 22959 1
22955 22960 1
22955 22963 1
22956 22961 1
22956 22962 1
22956 22965 1
22957 22959 1
22957 22960 1
22957 22964 1
22958 22963 1
22958 22964 1
22959 22961 1
22959 22962 1
22960 22965 1
22961 22963 1
22961 22964 1
22963 22965 1
22966 22969 1
22966 22970 1
22966 22974 1
22966 22977 1
22967 22971 1
22967 22972 1
22967 22975 1
22968 22973 1
22968 22974 1
22968 22977 1
22969 22971 1
22969 22972 1
22969 22976 1
22970 22975 1
22970 22976 1
22971 22973 1
22971 22974 1
22972 22977 1
22973 22975 1
22973 22976 1
22975 22977 1
22978 22981 1
22978 22982 1
22978 22986 1
22978 22989 1
22979 22983 1
22979 22984 1
22979 22987 1
22980 22985 1
22980 22986 1
22980 22989 1
22981 22983 1
22981 22984 1
22981 22988 1
22982 22987 1
22982 22988 1
22983 22985 1
22983 22986 1
22984 22989 1
22985 22987 1
22985 22988 1
22987 22989 1
22990 22993 1
22990 22994 1
22990 22998 1
22990 23001 1
22991 22995 1
22991 22996 1
22991 22999 1
22992 22997 1
22992 22998 1
22992 23001 1
22993 22995 1
22993 22996 1
22993 23000 1
22994 22999 1
22994 23000 1
22995 22997 1
22995 22998 1
22996 23001 1
22997 22999 1
22997 23000 1
22999 23001 1
23002 23005 1
23002 23006 1
23002 23010 1
23002 23013 1
23003 23007 1
23003 23008 1
23003 23011 1
23004 23009 1
23004 23010 1
23004 23013 1
23005 23007 1
23005 23008 1
23005 23012 1
23006 23011 1
23006 23012 1
23007 23009 1
23007 23010 1
23008 23013 1
23009 23011 1
23009 23012 1
23011 23013 1
23014 23017 1
23014 23018 1
23014 23022 1
23014 23025 1
23015 23019 1
23015 23020 1
23015 23023 1
23016 23021 1
23016 23022 1
23016 23025 1
23017 23019 1
23017 23020 1
23017 23024 1
23018 23023 1
23018 23024 1
23019 23021 1
23019 23022 1
23020 23025 1
23021 23023 1
23021 23024 1
23023 23025 1
23026 23029 1
23026 23030 1
23026 23034 1
23026 23037 1
23027 23031 1
23027 23032 1
23027 23035 1
23028 23033 1
23028 23034 1
23028 23037 1
23029 23031 1
23029 23032 1
23029 23036 1
23030 23035 1
23030 23036 1
23031 23033 1
23031 23034 1
23032 23037 1
23033 23035 1
23033 23036 1
23035 23037 1
23038 23041 1
23038 23042 1
23038 23046 1
23038 23049 1
23039 23043 1
23039 23044 1
23039 23047 1
23040 23045 1
23040 23046 1
23040 23049 1
23041 23043 1
23041 23044 1
23041 23048 1
23042 23047 1
23042 23048 1
23043 23045 1
23043 23046 1
23044 23049 1
23045 23047 1
23045 23048 1
23047 23049 1
23050 23053 1
23050 23054 1
23050 23058 1
23050 23061 1
23051 23055 1
23051 23056 1
23051 23059 1
23052 23057 1
23052 23058 1
23052 23061 1
23053 23055 1
23053 23056 1
23053 23060 1
23054 23059 1
23054 23060 1
23055 23057 1
23055 23058 1
23056 23061 1
23057 23059 1
23057 23060 1
23059 23061 1
23062 23065 1
23062 23066 1
23062 23070 1
23062 23073 1
23063 23067 1
23063 23068 1
23063 23071 1
23064 23069 1
23064 23070 1
23064 23073 1
23065 23067 1
23065 23068 1
23065 23072 1
23066 23071 1
23066 23072 1
23067 23069 1
23067 23070 1
23068 23073 1
23069 23071 1
23069 23072 1
23071 23073 1
23074 23077 1
23074 23078 1
23074 23082 1
23074 23085 1
23075 23079 1
23075 23080 1
23075 23083 1
23076 23081 1
23076 23082 1
23076 23085 1
23077 23079 1
23077 23080 1
23077 23084 1
23078 23083 1
23078 23084 1
23079 23081 1
23079 23082 1
23080 23085 1
23081 23083 1
23081 23084 1
23083 23085 1
23086 23089 1
23086 23090 1
23086 23094 1
23086 23097 1
23087 23091 1
23087 23092 1
23087 23095 1
23088 23093 1
23088 23094 1
23088 23097 1
23089 23091 1
23089 23092 1
23089 23096 1
23090 23095 1
23090 23096 1
23091 23093 1
23091 23094 1
23092 23097 1
23093 23095 1
23093 23096 1
23095 23097 1
23098 23101 1
23098 23102 1
23098 23106 1
23098 23109 1
23099 23103 1
23099 23104 1
23099 23107 1
23100 23105 1
23100 23106 1
23100 23109 1
23101 23103 1
23101 23104 1
23101 23108 1
23102 23107 1
23102 23108 1
23103 23105 1
23103 23106 1
23104 23109 1
23105 23107 1
23105 23108 1
23107 23109 1
23110 23113 1
23110 23114 1
23110 23118 1
23110 23121 1
23111 23115 1
23111 23116 1
23111 23119 1
23112 23117 1
23112 23118 1
23112 23121 1
23113 23115 1
23113 23116 1
23113 23120 1
23114 23119 1
23114 23120 1
23115 23117 1
23115 23118 1
23116 23121 1
23117 23119 1
23117 23120 1
23119 23121 1
23122 23125 1
23122 23126 1
23122 23130 1
23122 23133 1
23123 23127 1
23123 23128 1
23123 23131 1
23124 23129 1
23124 23130 1
23124 23133 1
23125 23127 1
23125 23128 1
23125 23132 1
23126 23131 1
23126 23132 1
23127 23129 1
23127 23130 1
23128 23133 1
23129 23131 1
23129 23132 1
23131 23133 1
23134 23137 1
23134 23138 1
23134 23142 1
23134 23145 1
23135 23139 1
23135 23140 1
23135 23143 1
23136 23141 1
23136 23142 1
23136 23145 1
23137 23139 1
23137 23140 1
23137 23144 1
23138 23143 1
23138 23144 1
23139 23141 1
23139 23142 1
23140 23145 1
23141 23143 1
23141 23144 1
23143 23145 1
23146 23149 1
23146 23150 1
23146 23154 1
23146 23157 1
23147 23151 1
23147 23152 1
23147 23155 1
23148 23153 1
23148 23154 1
23148 23157 1
23149 23151 1
23149 23152 1
23149 23156 1
23150 23155 1
23150 23156 1
23151 23153 1
23151 23154 1
23152 23157 1
23153 23155 1
23153 23156 1
23155 23157 1
23158 23161 1
23158 23162 1
23158 23166 1
23158 23169 1
23159 23163 1
23159 23164 1
23159 23167 1
23160 23165 1
23160 23166 1
23160 23169 1
23161 23163 1
23161 23164 1
23161 23168 1
23162 23167 1
23162 23168 1
23163 23165 1
23163 23166 1
23164 23169 1
23165 23167 1
23165 23168 1
23167 23169 1
23170 23173 1
23170 23174 1
23170 23178 1
23170 23181 1
23171 23175 1
23171 23176 1
23171 23179 1
23172 23177 1
23172 23178 1
23172 23181 1
23173 23175 1
23173 23176 1
23173 23180 1
23174 23179 1
23174 23180 1
23175 23177 1
23175 23178 1
23176 23181 1
23177 23179 1
23177 23180 1
23179 23181 1
23182 23185 1
23182 23186 1
23182 23190 1
23182 23193 1
23183 23187 1
23183 23188 1
23183 23191 1
23184 23189 1
23184 23190 1
23184 23193 1
23185 23187 1
23185 23188 1
23185 23192 1
23186 23191 1
23186 23192 1
23187 23189 1
23187 23190 1
23188 23193 1
23189 23191 1
23189 23192 1
23191 23193 1
23194 23197 1
23194 23198 1
23194 23202 1
23194 23205 1
23195 23199 1
23195 23200 1
23195 23203 1
23196 23201 1
23196 23202 1
23196 23205 1
23197 23199 1
23197 23200 1
23197 23204 1
23198 23203 1
23198 23204 1
23199 23201 1
23199 23202 1
23200 23205 1
23201 23203 1
23201 23204 1
23203 23205 1
23206 23209 1
23206 23210 1
23206 23214 1
23206 23217 1
23207 23211 1
23207 23212 1
23207 23215 1
23208 23213 1
23208 23214 1
23208 23217 1
23209 23211 1
23209 23212 1
23209 23216 1
23210 23215 1
23210 23216 1
23211 23213 1
23211 23214 1
23212 23217 1
23213 23215 1
23213 23216 1
23215 23217 1
23218 23221 1
23218 23222 1
23218 23226 1
23218 23229 1
23219 23223 1
23219 23224 1
23219 23227 1
23220 23225 1
23220 23226 1
23220 23229 1
23221 23223 1
23221 23224 1
23221 23228 1
23222 23227 1
23222 23228 1
23223 23225 1
23223 23226 1
23224 23229 1
23225 23227 1
23225 23228 1
23227 23229 1
23230 23233 1
23230 23234 1
23230 23238 1
23230 23241 1
23231 23235 1
23231 23236 1
23231 23239 1
23232 23237 1
23232 23238 1
23232 23241 1
23233 23235 1
23233 23236 1
23233 23240 1
23234 23239 1
23234 23240 1
23235 23237 1
23235 23238 1
23236 23241 1
23237 23239 1
23237 23240 1
23239 23241 1
23242 23245 1
23242 23246 1
23242 23250 1
23242 23253 1
23243 23247 1
23243 23248 1
23243 23251 1
23244 23249 1
23244 23250 1
23244 23253 1
23245 23247 1
23245 23248 1
23245 23252 1
23246 23251 1
23246 23252 1
23247 23249 1
23247 23250 1
23248 23253 1
23249 23251 1
23249 23252 1
23251 23253 1
23254 23257 1
23254 23258 1
23254 23262 1
23254 23265 1
23255 23259 1
23255 23260 1
23255 23263 1
23256 23261 1
23256 23262 1
23256 23265 1
23257 23259 1
23257 23260 1
23257 23264 1
23258 23263 1
23258 23264 1
23259 23261 1
23259 23262 1
23260 23265 1
23261 23263 1
23261 23264 1
23263 23265 1
23266 23269 1
23266 23270 1
23266 23274 1
23266 23277 1
23267 23271 1
23267 23272 1
23267 23275 1
23268 23273 1
23268 23274 1
23268 23277 1
23269 23271 1
23269 23272 1
23269 23276 1
23270 23275 1
23270 23276 1
23271 23273 1
23271 23274 1
23272 23277 1
23273 23275 1
23273 23276 1
23275 23277 1
23278 23281 1
23278 23282 1
23278 23286 1
23278 23289 1
23279 23283 1
23279 23284 1
23279 23287 1
23280 23285 1
23280 23286 1
23280 23289 1
23281 23283 1
23281 23284 1
23281 23288 1
23282 23287 1
23282 23288 1
23283 23285 1
23283 23286 1
23284 23289 1
23285 23287 1
23285 23288 1
23287 23289 1
23290 23293 1
23290 23294 1
23290 23298 1
23290 23301 1
23291 23295 1
23291 23296 1
23291 23299 1
23292 23297 1
23292 23298 1
23292 23301 1
23293 23295 1
23293 23296 1
23293 23300 1
23294 23299 1
23294 23300 1
23295 23297 1
23295 23298 1
23296 23301 1
23297 23299 1
23297 23300 1
23299 23301 1
23302 23305 1
23302 23306 1
23302 23310 1
23302 23313 1
23303 23307 1
23303 23308 1
23303 23311 1
23304 23309 1
23304 23310 1
23304 23313 1
23305 23307 1
23305 23308 1
23305 23312 1
23306 23311 1
23306 23312 1
23307 23309 1
23307 23310 1
23308 23313 1
23309 23311 1
23309 23312 1
23311 23313 1
23314 23317 1
23314 23318 1
23314 23322 1
23314 23325 1
23315 23319 1
23315 23320 1
23315 23323 1
23316 23321 1
23316 23322 1
23316 23325 1
23317 23319 1
23317 23320 1
23317 23324 1
23318 23323 1
23318 23324 1
23319 23321 1
23319 23322 1
23320 23325 1
23321 23323 1
23321 23324 1
23323 23325 1
23326 23329 1
23326 23330 1
23326 23334 1
23326 23337 1
23327 23331 1
23327 23332 1
23327 23335 1
23328 23333 1
23328 23334 1
23328 23337 1
23329 23331 1
23329 23332 1
23329 23336 1
23330 23335 1
23330 23336 1
23331 23333 1
23331 23334 1
23332 23337 1
23333 23335 1
23333 23336 1
23335 23337 1
23338 23341 1
23338 23342 1
23338 23346 1
23338 23349 1
23339 23343 1
23339 23344 1
23339 23347 1
23340 23345 1
23340 23346 1
23340 23349 1
23341 23343 1
23341 23344 1
23341 23348 1
23342 23347 1
23342 23348 1
23343 23345 1
23343 23346 1
23344 23349 1
23345 23347 1
23345 23348 1
23347 23349 1
23350 23353 1
23350 23354 1
23350 23358 1
23350 23361 1
23351 23355 1
23351 23356 1
23351 23359 1
23352 23357 1
23352 23358 1
23352 23361 1
23353 23355 1
23353 23356 1
23353 23360 1
23354 23359 1
23354 23360 1
23355 23357 1
23355 23358 1
23356 23361 1
23357 23359 1
23357 23360 1
23359 23361 1
23362 23365 1
23362 23366 1
23362 23370 1
23362 23373 1
23363 23367 1
23363 23368 1
23363 23371 1
23364 23369 1
23364 23370 1
23364 23373 1
23365 23367 1
23365 23368 1
23365 23372 1
23366 23371 1
23366 23372 1
23367 23369 1
23367 23370 1
23368 23373 1
23369 23371 1
23369 23372 1
23371 23373 1
23374 23377 1
23374 23378 1
23374 23382 1
23374 23385 1
23375 23379 1
23375 23380 1
23375 23383 1
23376 23381 1
23376 23382 1
23376 23385 1
23377 23379 1
23377 23380 1
23377 23384 1
23378 23383 1
23378 23384 1
23379 23381 1
23379 23382 1
23380 23385 1
23381 23383 1
23381 23384 1
23383 23385 1
23386 23389 1
23386 23390 1
23386 23394 1
23386 23397 1
23387 23391 1
23387 23392 1
23387 23395 1
23388 23393 1
23388 23394 1
23388 23397 1
23389 23391 1
23389 23392 1
23389 23396 1
23390 23395 1
23390 23396 1
23391 23393 1
23391 23394 1
23392 23397 1
23393 23395 1
23393 23396 1
23395 23397 1
23398 23401 1
23398 23402 1
23398 23406 1
23398 23409 1
23399 23403 1
23399 23404 1
23399 23407 1
23400 23405 1
23400 23406 1
23400 23409 1
23401 23403 1
23401 23404 1
23401 23408 1
23402 23407 1
23402 23408 1
23403 23405 1
23403 23406 1
23404 23409 1
23405 23407 1
23405 23408 1
23407 23409 1
23410 23413 1
23410 23414 1
23410 23418 1
23410 23421 1
23411 23415 1
23411 23416 1
23411 23419 1
23412 23417 1
23412 23418 1
23412 23421 1
23413 23415 1
23413 23416 1
23413 23420 1
23414 23419 1
23414 23420 1
23415 23417 1
23415 23418 1
23416 23421 1
23417 23419 1
23417 23420 1
23419 23421 1
23422 23425 1
23422 23426 1
23422 23430 1
23422 23433 1
23423 23427 1
23423 23428 1
23423 23431 1
23424 23429 1
23424 23430 1
23424 23433 1
23425 23427 1
23425 23428 1
23425 23432 1
23426 23431 1
23426 23432 1
23427 23429 1
23427 23430 1
23428 23433 1
23429 23431 1
23429 23432 1
23431 23433 1
23434 23437 1
23434 23438 1
23434 23442 1
23434 23445 1
23435 23439 1
23435 23440 1
23435 23443 1
23436 23441 1
23436 23442 1
23436 23445 1
23437 23439 1
23437 23440 1
23437 23444 1
23438 23443 1
23438 23444 1
23439 23441 1
23439 23442 1
23440 23445 1
23441 23443 1
23441 23444 1
23443 23445 1
23446 23449 1
23446 23450 1
23446 23454 1
23446 23457 1
23447 23451 1
23447 23452 1
23447 23455 1
23448 23453 1
23448 23454 1
23448 23457 1
23449 23451 1
23449 23452 1
23449 23456 1
23450 23455 1
23450 23456 1
23451 23453 1
23451 23454 1
23452 23457 1
23453 23455 1
23453 23456 1
23455 23457 1
23458 23461 1
23458 23462 1
23458 23466 1
23458 23469 1
23459 23463 1
23459 23464 1
23459 23467 1
23460 23465 1
23460 23466 1
23460 23469 1
23461 23463 1
23461 23464 1
23461 23468 1
23462 23467 1
23462 23468 1
23463 23465 1
23463 23466 1
23464 23469 1
23465 23467 1
23465 23468 1
23467 23469 1
23470 23473 1
23470 23474 1
23470 23478 1
23470 23481 1
23471 23475 1
23471 23476 1
23471 23479 1
23472 23477 1
23472 23478 1
23472 23481 1
23473 23475 1
23473 23476 1
23473 23480 1
23474 23479 1
23474 23480 1
23475 23477 1
23475 23478 1
23476 23481 1
23477 23479 1
23477 23480 1
23479 23481 1
23482 23485 1
23482 23486 1
23482 23490 1
23482 23493 1
23483 23487 1
23483 23488 1
23483 23491 1
23484 23489 1
23484 23490 1
23484 23493 1
23485 23487 1
23485 23488 1
23485 23492 1
23486 23491 1
23486 23492 1
23487 23489 1
23487 23490 1
23488 23493 1
23489 23491 1
23489 23492 1
23491 23493 1
23494 23497 1
23494 23498 1
23494 23502 1
23494 23505 1
23495 23499 1
23495 23500 1
23495 23503 1
23496 23501 1
23496 23502 1
23496 23505 1
23497 23499 1
23497 23500 1
23497 23504 1
23498 23503 1
23498 23504 1
23499 23501 1
23499 23502 1
23500 23505 1
23501 23503 1
23501 23504 1
23503 23505 1
23506 23509 1
23506 23510 1
23506 23514 1
23506 23517 1
23507 23511 1
23507 23512 1
23507 23515 1
23508 23513 1
23508 23514 1
23508 23517 1
23509 23511 1
23509 23512 1
23509 23516 1
23510 23515 1
23510 23516 1
23511 23513 1
23511 23514 1
23512 23517 1
23513 23515 1
23513 23516 1
23515 23517 1
23518 23521 1
23518 23522 1
23518 23526 1
23518 23529 1
23519 23523 1
23519 23524 1
23519 23527 1
23520 23525 1
23520 23526 1
23520 23529 1
23521 23523 1
23521 23524 1
23521 23528 1
23522 23527 1
23522 23528 1
23523 23525 1
23523 23526 1
23524 23529 1
23525 23527 1
23525 23528 1
23527 23529 1
23530 23533 1
23530 23534 1
23530 23538 1
23530 23541 1
23531 23535 1
23531 23536 1
23531 23539 1
23532 23537 1
23532 23538 1
23532 23541 1
23533 23535 1
23533 23536 1
23533 23540 1
23534 23539 1
23534 23540 1
23535 23537 1
23535 23538 1
23536 23541 1
23537 23539 1
23537 23540 1
23539 23541 1
23542 23545 1
23542 23546 1
23542 23550 1
23542 23553 1
23543 23547 1
23543 23548 1
23543 23551 1
23544 23549 1
23544 23550 1
23544 23553 1
23545 23547 1
23545 23548 1
23545 23552 1
23546 23551 1
23546 23552 1
23547 23549 1
23547 23550 1
23548 23553 1
23549 23551 1
23549 23552 1
23551 23553 1
23554 23557 1
23554 23558 1
23554 23562 1
23554 23565 1
23555 23559 1
23555 23560 1
23555 23563 1
23556 23561 1
23556 23562 1
23556 23565 1
23557 23559 1
23557 23560 1
23557 23564 1
23558 23563 1
23558 23564 1
23559 23561 1
23559 23562 1
23560 23565 1
23561 23563 1
23561 23564 1
23563 23565 1
23566 23569 1
23566 23570 1
23566 23574 1
23566 23577 1
23567 23571 1
23567 23572 1
23567 23575 1
23568 23573 1
23568 23574 1
23568 23577 1
23569 23571 1
23569 23572 1
23569 23576 1
23570 23575 1
23570 23576 1
23571 23573 1
23571 23574 1
23572 23577 1
23573 23575 1
23573 23576 1
23575 23577 1
23578 23581 1
23578 23582 1
23578 23586 1
23578 23589 1
23579 23583 1
23579 23584 1
23579 23587 1
23580 23585 1
23580 23586 1
23580 23589 1
23581 23583 1
23581 23584 1
23581 23588 1
23582 23587 1
23582 23588 1
23583 23585 1
23583 23586 1
23584 23589 1
23585 23587 1
23585 23588 1
23587 23589 1
23590 23593 1
23590 23594 1
23590 23598 1
23590 23601 1
23591 23595 1
23591 23596 1
23591 23599 1
23592 23597 1
23592 23598 1
23592 23601 1
23593 23595 1
23593 23596 1
23593 23600 1
23594 23599 1
23594 23600 1
23595 23597 1
23595 23598 1
23596 23601 1
23597 23599 1
23597 23600 1
23599 23601 1

[ angles ]
; ai aj ak funct params
11252 1 14630 1 149.00000 418.400000
11252 2 15290 1 149.00000 418.400000
11252 3 15469 1 149.00000 418.400000
11252 4 11577 1 149.00000 418.400000
11372 5 21373 1 149.00000 418.400000
20977 6 21373 1 149.00000 418.400000
11253 7 15396 1 149.00000 418.400000
11253 8 16193 1 149.00000 418.400000
11253 9 11629 1 149.00000 418.400000
11253 10 12263 1 149.00000 418.400000
11254 11 22669 1 149.00000 418.400000
11254 12 12404 1 149.00000 418.400000
11254 13 13363 1 149.00000 418.400000
11255 14 11287 1 149.00000 418.400000
11255 15 13295 1 149.00000 418.400000
11255 16 13550 1 149.00000 418.400000
11255 17 12344 1 149.00000 418.400000
12173 18 19537 1 149.00000 418.400000
15062 19 23602 1 149.00000 418.400000
13908 20 23602 1 149.00000 418.400000
19453 21 23602 1 149.00000 418.400000
11256 22 14879 1 149.00000 418.400000
11256 23 15795 1 149.00000 418.400000
11256 24 24412 1 149.00000 418.400000
11256 25 12622 1 149.00000 418.400000
11257 26 12083 1 149.00000 418.400000
11257 27 13592 1 149.00000 418.400000
11257 28 14728 1 149.00000 418.400000
11257 29 16067 1 149.00000 418.400000
21889 30 23893 1 149.00000 418.400000
16479 31 21889 1 149.00000 418.400000
13617 32 21889 1 149.00000 418.400000
11258 33 13944 1 149.00000 418.400000
11258 34 15207 1 149.00000 418.400000
11258 35 12560 1 149.00000 418.400000
11258 36 14894 1 149.00000 418.400000
11259 37 13893 1 149.00000 418.400000
11259 38 13255 1 149.00000 418.400000
11259 39 12488 1 149.00000 418.400000
11259 40 13789 1 149.00000 418.400000
11260 41 14872 1 149.00000 418.400000
11260 42 14259 1 149.00000 418.400000
11260 43 15513 1 149.00000 418.400000
11260 44 15871 1 149.00000 418.400000
11261 45 14985 1 149.00000 418.400000
11261 46 22201 1 149.00000 418.400000
11261 47 13970 1 149.00000 418.400000
11261 48 15353 1 149.00000 418.400000
11262 49 14245 1 149.00000 418.400000
11262 50 14566 1 149.00000 418.400000
11262 51 13698 1 149.00000 418.400000
11262 52 12027 1 149.00000 418.400000
11263 53 13765 1 149.00000 418.400000
11263 54 12469 1 149.00000 418.400000
11263 55 15456 1 149.00000 418.400000
11263 56 12095 1 149.00000 418.400000
11264 57 13793 1 149.00000 418.400000
11264 58 13625 1 149.00000 418.400000
11264 59 11682 1 149.00000 418.400000
11264 60 15044 1 149.00000 418.400000
11265 61 17067 1 149.00000 418.400000
11265 62 12267 1 149.00000 418.400000
11265 63 11290 1 149.00000 418.400000
11265 64 12007 1 149.00000 418.400000
11266 65 11430 1 149.00000 418.400000
11266 66 15647 1 149.00000 418.400000
11266 67 15691 1 149.00000 418.400000
16220 68 18661 1 149.00000 418.400000
14665 69 18661 1 149.00000 418.400000
11267 70 14935 1 149.00000 418.400000
11267 71 13578 1 149.00000 418.400000
11267 72 15982 1 149.00000 418.400000
11267 73 15581 1 149.00000 418.400000
11268 74 23041 1 149.00000 418.400000
11268 75 23992 1 149.00000 418.400000
11268 76 15447 1 149.00000 418.400000
11268 77 16246 1 149.00000 418.400000
11269 78 12269 1 149.00000 418.400000
11269 79 11641 1 149.00000 418.400000
11269 80 14827 1 149.00000 418.400000
11269 81 14402 1 149.00000 418.400000
11270 82 13549 1 149.00000 418.400000
11270 83 16249 1 149.00000 418.400000
11270 84 14420 1 149.00000 418.400000
11270 85 16103 1 149.00000 418.400000
13312 86 13338 1 149.00000 418.400000
11271 87 12950 1 149.00000 418.400000
11271 88 13338 1 149.00000 418.400000
11271 89 15450 1 149.00000 418.400000
23605 90 24160 1 149.00000 418.400000
15548 91 23605 1 149.00000 418.400000
15154 92 23605 1 149.00000 418.400000
11272 93 13513 1 149.00000 418.400000
11272 94 13274 1 149.00000 418.400000
11272 95 15836 1 149.00000 418.400000
11272 96 12447 1 149.00000 418.400000
11273 97 15189 1 149.00000 418.400000
11273 98 12761 1 149.00000 418.400000
11273 99 13616 1 149.00000 418.400000
11273 100 15708 1 149.00000 418.400000
11274 101 11510 1 149.00000 418.400000
11274 102 13710 1 149.00000 418.400000
11274 103 12236 1 149.00000 418.400000
11274 104 15845 1 149.00000 418.400000
11275 105 11939 1 149.00000 418.400000
11275 106 16200 1 149.00000 418.400000
11275 107 15611 1 149.00000 418.400000
11275 108 15848 1 149.00000 418.400000
11276 109 14391 1 149.00000 418.400000
11276 110 15772 1 149.00000 418.400000
11276 111 13284 1 149.00000 418.400000
11276 112 15488 1 149.00000 418.400000
11277 113 11632 1 149.00000 418.400000
11277 114 12359 1 149.00000 418.400000
11277 115 15759 1 149.00000 418.400000
11277 116 11686 1 149.00000 418.400000
11278 117 14075 1 149.00000 418.400000
11278 118 11683 1 149.00000 418.400000
11278 119 14815 1 149.00000 418.400000
11278 120 12423 1 149.00000 418.400000
16220 121 16311 1 149.00000 418.400000
16311 122 24292 1 149.00000 418.400000
11366 123 19717 1 149.00000 418.400000
16135 124 19717 1 149.00000 418.400000
19717 125 20317 1 149.00000 418.400000
11279 126 11691 1 149.00000 418.400000
11279 127 11281 1 149.00000 418.400000
11279 128 11696 1 149.00000 418.400000
11279 129 11594 1 149.00000 418.400000
11280 130 12643 1 149.00000 418.400000
11280 131 13485 1 149.00000 418.400000
11280 132 13405 1 149.00000 418.400000
11280 133 15245 1 149.00000 418.400000
11281 134 12984 1 149.00000 418.400000
11281 135 13260 1 149.00000 418.400000
11281 136 14923 1 149.00000 418.400000
11282 137 19729 1 149.00000 418.400000
11282 138 14911 1 149.00000 418.400000
11282 139 12046 1 149.00000 418.400000
11283 140 12428 1 149.00000 418.400000
11283 141 13448 1 149.00000 418.400000
11283 142 19189 1 149.00000 418.400000
11283 143 11713 1 149.00000 418.400000
11284 144 14908 1 149.00000 418.400000
11284 145 17585 1 149.00000 418.400000
11284 146 23731 1 149.00000 418.400000
11284 147 24352 1 149.00000 418.400000
13595 148 14734 1 149.00000 418.400000
11285 149 14542 1 149.00000 418.400000
11285 150 14734 1 149.00000 418.400000
11285 151 11522 1 149.00000 418.400000
11286 152 14324 1 149.00000 418.400000
11286 153 11650 1 149.00000 418.400000
11286 154 14432 1 149.00000 418.400000
11286 155 11700 1 149.00000 418.400000
11287 156 11952 1 149.00000 418.400000
11287 157 13207 1 149.00000 418.400000
11287 158 13794 1 149.00000 418.400000
13325 159 13438 1 149.00000 418.400000
11288 160 11550 1 149.00000 418.400000
11288 161 12502 1 149.00000 418.400000
11288 162 14869 1 149.00000 418.400000
11289 163 12981 1 149.00000 418.400000
11289 164 13195 1 149.00000 418.400000
11289 165 15781 1 149.00000 418.400000
11289 166 14384 1 149.00000 418.400000
11290 167 13449 1 149.00000 418.400000
11290 168 23764 1 149.00000 418.400000
11290 169 13858 1 149.00000 418.400000
11291 170 15848 1 149.00000 418.400000
11291 171 11914 1 149.00000 418.400000
11291 172 13187 1 149.00000 418.400000
11291 173 15258 1 149.00000 418.400000
11292 174 19213 1 149.00000 418.400000
11292 175 24103 1 149.00000 418.400000
11292 176 11412 1 149.00000 418.400000
11292 177 16269 1 149.00000 418.400000
22825 178 24121 1 149.00000 418.400000
15810 179 22825 1 149.00000 418.400000
11293 180 12520 1 149.00000 418.400000
11293 181 13575 1 149.00000 418.400000
11293 182 15692 1 149.00000 418.400000
11293 183 15754 1 149.00000 418.400000
11294 184 14195 1 149.00000 418.400000
11294 185 13058 1 149.00000 418.400000
11294 186 12434 1 149.00000 418.400000
11294 187 13522 1 149.00000 418.400000
11295 188 15369 1 149.00000 418.400000
11295 189 13427 1 149.00000 418.400000
11295 190 15061 1 149.00000 418.400000
11295 191 11922 1 149.00000 418.400000
13837 192 18131 1 149.00000 418.400000
11296 193 12780 1 149.00000 418.400000
11296 194 14438 1 149.00000 418.400000
11296 195 14279 1 149.00000 418.400000
11296 196 12293 1 149.00000 418.400000
11297 197 16012 1 149.00000 418.400000
11297 198 13720 1 149.00000 418.400000
11297 199 13991 1 149.00000 418.400000
11297 200 12216 1 149.00000 418.400000
11298 201 14961 1 149.00000 418.400000
11298 202 14758 1 149.00000 418.400000
11298 203 13066 1 149.00000 418.400000
12307 204 14758 1 149.00000 418.400000
17011 205 18913 1 149.00000 418.400000
11299 206 15576 1 149.00000 418.400000
11299 207 18913 1 149.00000 418.400000
11299 208 11626 1 149.00000 418.400000
11300 209 12774 1 149.00000 418.400000
11300 210 16179 1 149.00000 418.400000
11300 211 15406 1 149.00000 418.400000
11300 212 16002 1 149.00000 418.400000
12864 213 16165 1 149.00000 418.400000
11301 214 12864 1 149.00000 418.400000
11301 215 13956 1 149.00000 418.400000
11301 216 13006 1 149.00000 418.400000
11302 217 13970 1 149.00000 418.400000
11302 218 15185 1 149.00000 418.400000
11302 219 12115 1 149.00000 418.400000
11302 220 15357 1 149.00000 418.400000
18409 221 18697 1 149.00000 418.400000
12847 222 18409 1 149.00000 418.400000
16016 223 18409 1 149.00000 418.400000
11303 224 16159 1 149.00000 418.400000
11303 225 13589 1 149.00000 418.400000
11303 226 11630 1 149.00000 418.400000
11303 227 16039 1 149.00000 418.400000
11304 228 13186 1 149.00000 418.400000
11304 229 13767 1 149.00000 418.400000
11304 230 11857 1 149.00000 418.400000
11304 231 15716 1 149.00000 418.400000
21721 232 23608 1 149.00000 418.400000
15800 233 23608 1 149.00000 418.400000
14880 234 23608 1 149.00000 418.400000
13820 235 15919 1 149.00000 418.400000
13820 236 14255 1 149.00000 418.400000
11305 237 13820 1 149.00000 418.400000
13029 238 13820 1 149.00000 418.400000
23611 239 24178 1 149.00000 418.400000
15495 240 23611 1 149.00000 418.400000
18173 241 23611 1 149.00000 418.400000
15664 242 20209 1 149.00000 418.400000
13220 243 20209 1 149.00000 418.400000
14584 244 20209 1 149.00000 418.400000
17193 245 19981 1 149.00000 418.400000
11306 246 12674 1 149.00000 418.400000
11306 247 16118 1 149.00000 418.400000
11306 248 12717 1 149.00000 418.400000
11306 249 11375 1 149.00000 418.400000
11657 250 13385 1 149.00000 418.400000
11307 251 14839 1 149.00000 418.400000
11307 252 13987 1 149.00000 418.400000
11307 253 13385 1 149.00000 418.400000
11746 254 24307 1 149.00000 418.400000
23671 255 24307 1 149.00000 418.400000
11308 256 13757 1 149.00000 418.400000
11308 257 13560 1 149.00000 418.400000
11308 258 14523 1 149.00000 418.400000
11308 259 13819 1 149.00000 418.400000
11309 260 23689 1 149.00000 418.400000
11309 261 11941 1 149.00000 418.400000
11309 262 23257 1 149.00000 418.400000
11309 263 11321 1 149.00000 418.400000
11310 264 15656 1 149.00000 418.400000
11310 265 14197 1 149.00000 418.400000
11310 266 16222 1 149.00000 418.400000
11310 267 12112 1 149.00000 418.400000
11311 268 12637 1 149.00000 418.400000
11311 269 12756 1 149.00000 418.400000
11311 270 15300 1 149.00000 418.400000
11311 271 11346 1 149.00000 418.400000
20077 272 20281 1 149.00000 418.400000
13852 273 20077 1 149.00000 418.400000
20077 274 21085 1 149.00000 418.400000
11312 275 14482 1 149.00000 418.400000
11312 276 15305 1 149.00000 418.400000
11312 277 12006 1 149.00000 418.400000
11312 278 14195 1 149.00000 418.400000
11313 279 13204 1 149.00000 418.400000
11313 280 11844 1 149.00000 418.400000
11313 281 15016 1 149.00000 418.400000
11313 282 13692 1 149.00000 418.400000
14582 283 23614 1 149.00000 418.400000
12867 284 23614 1 149.00000 418.400000
21313 285 23614 1 149.00000 418.400000
11314 286 12130 1 149.00000 418.400000
11314 287 12858 1 149.00000 418.400000
11314 288 14280 1 149.00000 418.400000
11314 289 11323 1 149.00000 418.400000
11315 290 11737 1 149.00000 418.400000
11315 291 12065 1 149.00000 418.400000
11315 292 11393 1 149.00000 418.400000
11737 293 12581 1 149.00000 418.400000
11316 294 14346 1 149.00000 418.400000
11316 295 15675 1 149.00000 418.400000
11316 296 13272 1 149.00000 418.400000
13272 297 13588 1 149.00000 418.400000
11317 298 15099 1 149.00000 418.400000
11317 299 15219 1 149.00000 418.400000
11317 300 11937 1 149.00000 418.400000
11317 301 11920 1 149.00000 418.400000
11318 302 14189 1 149.00000 418.400000
11318 303 11991 1 149.00000 418.400000
11318 304 14014 1 149.00000 418.400000
11318 305 15301 1 149.00000 418.400000
11319 306 24001 1 149.00000 418.400000
11319 307 12879 1 149.00000 418.400000
11319 308 14316 1 149.00000 418.400000
11319 309 15816 1 149.00000 418.400000
11320 310 12390 1 149.00000 418.400000
11320 311 11569 1 149.00000 418.400000
11320 312 15025 1 149.00000 418.400000
11320 313 16188 1 149.00000 418.400000
11321 314 20461 1 149.00000 418.400000
11321 315 12657 1 149.00000 418.400000
11322 316 11537 1 149.00000 418.400000
11322 317 12604 1 149.00000 418.400000
11322 318 13941 1 149.00000 418.400000
11322 319 15464 1 149.00000 418.400000
15590 320 23221 1 149.00000 418.400000
11323 321 15013 1 149.00000 418.400000
11323 322 11922 1 149.00000 418.400000
11323 323 15877 1 149.00000 418.400000
11324 324 14788 1 149.00000 418.400000
11324 325 13969 1 149.00000 418.400000
11324 326 15141 1 149.00000 418.400000
11324 327 13670 1 149.00000 418.400000
11325 328 11642 1 149.00000 418.400000
11325 329 14447 1 149.00000 418.400000
11325 330 16199 1 149.00000 418.400000
11325 331 11481 1 149.00000 418.400000
11326 332 15377 1 149.00000 418.400000
11326 333 12063 1 149.00000 418.400000
11326 334 11954 1 149.00000 418.400000
11326 335 13694 1 149.00000 418.400000
12623 336 15162 1 149.00000 418.400000
14801 337 15162 1 149.00000 418.400000
11327 338 16113 1 149.00000 418.400000
11590 339 15162 1 149.00000 418.400000
11328 340 12492 1 149.00000 418.400000
11328 341 13675 1 149.00000 418.400000
11328 342 12583 1 149.00000 418.400000
11328 343 14313 1 149.00000 418.400000
11329 344 14497 1 149.00000 418.400000
11329 345 11636 1 149.00000 418.400000
11329 346 14811 1 149.00000 418.400000
11329 347 11382 1 149.00000 418.400000
12667 348 18397 1 149.00000 418.400000
13878 349 18397 1 149.00000 418.400000
18397 350 23617 1 149.00000 418.400000
14134 351 23617 1 149.00000 418.400000
11330 352 15600 1 149.00000 418.400000
11330 353 13447 1 149.00000 418.400000
11330 354 14200 1 149.00000 418.400000
11330 355 16005 1 149.00000 418.400000
11331 356 22021 1 149.00000 418.400000
11331 357 24187 1 149.00000 418.400000
11331 358 14829 1 149.00000 418.400000
11331 359 13753 1 149.00000 418.400000
11332 360 12571 1 149.00000 418.400000
11332 361 15578 1 149.00000 418.400000
11332 362 11431 1 149.00000 418.400000
11332 363 12335 1 149.00000 418.400000
11333 364 16122 1 149.00000 418.400000
11333 365 15898 1 149.00000 418.400000
11333 366 12532 1 149.00000 418.400000
11333 367 14121 1 149.00000 418.400000
13618 368 15929 1 149.00000 418.400000
15929 369 18625 1 149.00000 418.400000
12224 370 15929 1 149.00000 418.400000
12927 371 21229 1 149.00000 418.400000
11334 372 12927 1 149.00000 418.400000
12927 373 15223 1 149.00000 418.400000
11334 374 19429 1 149.00000 418.400000
11392 375 11712 1 149.00000 418.400000
11712 376 12559 1 149.00000 418.400000
11335 377 22585 1 149.00000 418.400000
11335 378 11712 1 149.00000 418.400000
11336 379 12479 1 149.00000 418.400000
11336 380 13404 1 149.00000 418.400000
11336 381 13912 1 149.00000 418.400000
11336 382 16114 1 149.00000 418.400000
11337 383 20509 1 149.00000 418.400000
11337 384 15054 1 149.00000 418.400000
11337 385 15544 1 149.00000 418.400000
11337 386 14174 1 149.00000 418.400000
11338 387 15166 1 149.00000 418.400000
11338 388 11400 1 149.00000 418.400000
11338 389 12764 1 149.00000 418.400000
11338 390 11545 1 149.00000 418.400000
11339 391 13157 1 149.00000 418.400000
11339 392 12912 1 149.00000 418.400000
11339 393 11739 1 149.00000 418.400000
11339 394 12412 1 149.00000 418.400000
18271 395 24058 1 149.00000 418.400000
11704 396 18271 1 149.00000 418.400000
11340 397 13984 1 149.00000 418.400000
11495 398 14156 1 149.00000 418.400000
11340 399 12425 1 149.00000 418.400000
11340 400 14156 1 149.00000 418.400000
11341 401 11409 1 149.00000 418.400000
11341 402 13899 1 149.00000 418.400000
11341 403 16203 1 149.00000 418.400000
11341 404 11440 1 149.00000 418.400000
11342 405 15355 1 149.00000 418.400000
11342 406 12846 1 149.00000 418.400000
13373 407 15008 1 149.00000 418.400000
11342 408 15008 1 149.00000 418.400000
11343 409 12282 1 149.00000 418.400000
11343 410 12796 1 149.00000 418.400000
11343 411 13920 1 149.00000 418.400000
11343 412 15950 1 149.00000 418.400000
11344 413 12921 1 149.00000 418.400000
11344 414 16221 1 149.00000 418.400000
11344 415 12413 1 149.00000 418.400000
11344 416 24163 1 149.00000 418.400000
18481 417 24193 1 149.00000 418.400000
13036 418 18481 1 149.00000 418.400000
16081 419 18481 1 149.00000 418.400000
11345 420 13005 1 149.00000 418.400000
11345 421 13828 1 149.00000 418.400000
11345 422 13732 1 149.00000 418.400000
11345 423 12957 1 149.00000 418.400000
11346 424 14034 1 149.00000 418.400000
11346 425 12560 1 149.00000 418.400000
11346 426 11375 1 149.00000 418.400000
11347 427 15543 1 149.00000 418.400000
11347 428 16094 1 149.00000 418.400000
11347 429 13947 1 149.00000 418.400000
11347 430 11445 1 149.00000 418.400000
11348 431 12546 1 149.00000 418.400000
11348 432 12619 1 149.00000 418.400000
11348 433 13223 1 149.00000 418.400000
11348 434 15446 1 149.00000 418.400000
11927 435 14097 1 149.00000 418.400000
11349 436 11927 1 149.00000 418.400000
11349 437 12899 1 149.00000 418.400000
11349 438 13712 1 149.00000 418.400000
13248 439 18061 1 149.00000 418.400000
18061 440 23722 1 149.00000 418.400000
11350 441 16759 1 149.00000 418.400000
11350 442 16717 1 149.00000 418.400000
11350 443 14964 1 149.00000 418.400000
11350 444 15453 1 149.00000 418.400000
11351 445 11397 1 149.00000 418.400000
11351 446 12544 1 149.00000 418.400000
11351 447 13816 1 149.00000 418.400000
11351 448 14486 1 149.00000 418.400000
12914 449 18089 1 149.00000 418.400000
11780 450 18089 1 149.00000 418.400000
11352 451 13284 1 149.00000 418.400000
11352 452 15589 1 149.00000 418.400000
11352 453 14096 1 149.00000 418.400000
11352 454 12638 1 149.00000 418.400000
11353 455 14175 1 149.00000 418.400000
11353 456 11745 1 149.00000 418.400000
11353 457 12220 1 149.00000 418.400000
11353 458 19753 1 149.00000 418.400000
16025 459 20197 1 149.00000 418.400000
17235 460 20197 1 149.00000 418.400000
11354 461 15234 1 149.00000 418.400000
11354 462 13142 1 149.00000 418.400000
11354 463 14595 1 149.00000 418.400000
11354 464 15246 1 149.00000 418.400000
11355 465 16149 1 149.00000 418.400000
11355 466 15947 1 149.00000 418.400000
11355 467 13661 1 149.00000 418.400000
11355 468 12804 1 149.00000 418.400000
11356 469 22105 1 149.00000 418.400000
11356 470 11941 1 149.00000 418.400000
11356 471 15274 1 149.00000 418.400000
11356 472 14185 1 149.00000 418.400000
12911 473 21181 1 149.00000 418.400000
14689 474 21181 1 149.00000 418.400000
11357 475 13650 1 149.00000 418.400000
11357 476 14522 1 149.00000 418.400000
11357 477 14614 1 149.00000 418.400000
11357 478 13120 1 149.00000 418.400000
11358 479 15221 1 149.00000 418.400000
13758 480 18901 1 149.00000 418.400000
16003 481 21973 1 149.00000 418.400000
11358 482 21973 1 149.00000 418.400000
11359 483 12742 1 149.00000 418.400000
11359 484 12671 1 149.00000 418.400000
11359 485 14321 1 149.00000 418.400000
11359 486 13924 1 149.00000 418.400000
11360 487 11829 1 149.00000 418.400000
11360 488 11463 1 149.00000 418.400000
11360 489 15866 1 149.00000 418.400000
11360 490 13023 1 149.00000 418.400000
11361 491 17179 1 149.00000 418.400000
11361 492 13766 1 149.00000 418.400000
11361 493 16221 1 149.00000 418.400000
11361 494 15526 1 149.00000 418.400000
13453 495 15836 1 149.00000 418.400000
11362 496 15306 1 149.00000 418.400000
11362 497 13453 1 149.00000 418.400000
11362 498 15115 1 149.00000 418.400000
14592 499 24382 1 149.00000 418.400000
11363 500 14599 1 149.00000 418.400000
11363 501 11727 1 149.00000 418.400000
11363 502 14874 1 149.00000 418.400000
11363 503 11371 1 149.00000 418.400000
11364 504 14944 1 149.00000 418.400000
11364 505 13016 1 149.00000 418.400000
11364 506 14401 1 149.00000 418.400000
11364 507 12263 1 149.00000 418.400000
11365 508 13262 1 149.00000 418.400000
11365 509 13393 1 149.00000 418.400000
11365 510 13188 1 149.00000 418.400000
11365 511 15259 1 149.00000 418.400000
11366 512 24387 1 149.00000 418.400000
11366 513 12080 1 149.00000 418.400000
11366 514 23389 1 149.00000 418.400000
11367 515 12964 1 149.00000 418.400000
11367 516 15674 1 149.00000 418.400000
11367 517 14564 1 149.00000 418.400000
22969 518 24241 1 149.00000 418.400000
22969 519 23785 1 149.00000 418.400000
16100 520 22969 1 149.00000 418.400000
11368 521 23521 1 149.00000 418.400000
11368 522 15064 1 149.00000 418.400000
12501 523 23521 1 149.00000 418.400000
11368 524 12084 1 149.00000 418.400000
11369 525 15991 1 149.00000 418.400000
11369 526 16197 1 149.00000 418.400000
11369 527 16047 1 149.00000 418.400000
11369 528 11757 1 149.00000 418.400000
11370 529 12400 1 149.00000 418.400000
11370 530 15272 1 149.00000 418.400000
11370 531 11529 1 149.00000 418.400000
11370 532 15408 1 149.00000 418.400000
11371 533 11996 1 149.00000 418.400000
11371 534 15109 1 149.00000 418.400000
11371 535 12787 1 149.00000 418.400000
11372 536 15492 1 149.00000 418.400000
11372 537 12227 1 149.00000 418.400000
11372 538 15583 1 149.00000 418.400000
11373 539 13741 1 149.00000 418.400000
11373 540 15405 1 149.00000 418.400000
11373 541 13334 1 149.00000 418.400000
11373 542 12677 1 149.00000 418.400000
12142 543 12434 1 149.00000 418.400000
12434 544 15968 1 149.00000 418.400000
11374 545 12434 1 149.00000 418.400000
11375 546 12692 1 149.00000 418.400000
11375 547 12302 1 149.00000 418.400000
11376 548 15739 1 149.00000 418.400000
11376 549 14061 1 149.00000 418.400000
11376 550 15291 1 149.00000 418.400000
11376 551 15546 1 149.00000 418.400000
11377 552 13024 1 149.00000 418.400000
11377 553 11517 1 149.00000 418.400000
11377 554 15468 1 149.00000 418.400000
11517 555 12843 1 149.00000 418.400000
15898 556 19249 1 149.00000 418.400000
13233 557 19249 1 149.00000 418.400000
13697 558 19249 1 149.00000 418.400000
12341 559 22693 1 149.00000 418.400000
11658 560 22693 1 149.00000 418.400000
12612 561 22693 1 149.00000 418.400000
11378 562 16180 1 149.00000 418.400000
11378 563 12229 1 149.00000 418.400000
11378 564 14786 1 149.00000 418.400000
11378 565 13830 1 149.00000 418.400000
11379 566 11958 1 149.00000 418.400000
11379 567 13827 1 149.00000 418.400000
11379 568 14719 1 149.00000 418.400000
11379 569 13000 1 149.00000 418.400000
11380 570 11501 1 149.00000 418.400000
11380 571 12370 1 149.00000 418.400000
11380 572 16055 1 149.00000 418.400000
11380 573 13183 1 149.00000 418.400000
11381 574 14492 1 149.00000 418.400000
11381 575 15146 1 149.00000 418.400000
11381 576 13080 1 149.00000 418.400000
11381 577 12253 1 149.00000 418.400000
14343 578 19729 1 149.00000 418.400000
19729 579 23719 1 149.00000 418.400000
11382 580 11953 1 149.00000 418.400000
11382 581 11808 1 149.00000 418.400000
11382 582 13382 1 149.00000 418.400000
14404 583 18257 1 149.00000 418.400000
13110 584 18257 1 149.00000 418.400000
11383 585 15756 1 149.00000 418.400000
11383 586 15149 1 149.00000 418.400000
11383 587 16118 1 149.00000 418.400000
11383 588 12081 1 149.00000 418.400000
11384 589 14352 1 149.00000 418.400000
11384 590 15981 1 149.00000 418.400000
11384 591 12199 1 149.00000 418.400000
11384 592 12898 1 149.00000 418.400000
11385 593 12028 1 149.00000 418.400000
11385 594 14368 1 149.00000 418.400000
11385 595 15321 1 149.00000 418.400000
11385 596 14525 1 149.00000 418.400000
11386 597 14158 1 149.00000 418.400000
11386 598 20569 1 149.00000 418.400000
11386 599 11434 1 149.00000 418.400000
11386 600 13019 1 149.00000 418.400000
17263 601 19177 1 149.00000 418.400000
15164 602 19177 1 149.00000 418.400000
16297 603 19177 1 149.00000 418.400000
11387 604 14207 1 149.00000 418.400000
11387 605 14424 1 149.00000 418.400000
11387 606 11388 1 149.00000 418.400000
11387 607 15794 1 149.00000 418.400000
11388 608 12627 1 149.00000 418.400000
11388 609 11507 1 149.00000 418.400000
11388 610 12528 1 149.00000 418.400000
11389 611 13384 1 149.00000 418.400000
11389 612 12135 1 149.00000 418.400000
11389 613 15428 1 149.00000 418.400000
11389 614 16254 1 149.00000 418.400000
11390 615 14657 1 149.00000 418.400000
11390 616 14176 1 149.00000 418.400000
11390 617 14969 1 149.00000 418.400000
11390 618 13928 1 149.00000 418.400000
14628 619 22249 1 149.00000 418.400000
22249 620 24154 1 149.00000 418.400000
14317 621 22249 1 149.00000 418.400000
11391 622 15244 1 149.00000 418.400000
11391 623 12451 1 149.00000 418.400000
11391 624 13168 1 149.00000 418.400000
11391 625 13563 1 149.00000 418.400000
11392 626 14865 1 149.00000 418.400000
11392 627 15151 1 149.00000 418.400000
11392 628 11869 1 149.00000 418.400000
11393 629 11400 1 149.00000 418.400000
11393 630 13570 1 149.00000 418.400000
11393 631 15376 1 149.00000 418.400000
11394 632 15449 1 149.00000 418.400000
11394 633 13746 1 149.00000 418.400000
11394 634 12245 1 149.00000 418.400000
11394 635 11933 1 149.00000 418.400000
11395 636 15124 1 149.00000 418.400000
11395 637 11994 1 149.00000 418.400000
11395 638 14034 1 149.00000 418.400000
11395 639 14894 1 149.00000 418.400000
11396 640 11673 1 149.00000 418.400000
11396 641 12144 1 149.00000 418.400000
11396 642 13842 1 149.00000 418.400000
11396 643 14873 1 149.00000 418.400000
11397 644 12134 1 149.00000 418.400000
11397 645 16271 1 149.00000 418.400000
11397 646 11648 1 149.00000 418.400000
11398 647 12554 1 149.00000 418.400000
11398 648 14353 1 149.00000 418.400000
11398 649 13901 1 149.00000 418.400000
11398 650 15296 1 149.00000 418.400000
11399 651 13377 1 149.00000 418.400000
11399 652 17767 1 149.00000 418.400000
11399 653 13926 1 149.00000 418.400000
11399 654 19441 1 149.00000 418.400000
11400 655 11963 1 149.00000 418.400000
11400 656 11770 1 149.00000 418.400000
11401 657 13491 1 149.00000 418.400000
11401 658 12339 1 149.00000 418.400000
11401 659 13087 1 149.00000 418.400000
12339 660 16261 1 149.00000 418.400000
11402 661 15747 1 149.00000 418.400000
11402 662 16187 1 149.00000 418.400000
14269 663 16187 1 149.00000 418.400000
11402 664 12365 1 149.00000 418.400000
11403 665 15462 1 149.00000 418.400000
14247 666 15462 1 149.00000 418.400000
11403 667 13018 1 149.00000 418.400000
11403 668 11558 1 149.00000 418.400000
12143 669 23620 1 149.00000 418.400000
14720 670 23620 1 149.00000 418.400000
11404 671 13863 1 149.00000 418.400000
11404 672 14748 1 149.00000 418.400000
12169 673 13863 1 149.00000 418.400000
11404 674 12619 1 149.00000 418.400000
11405 675 12361 1 149.00000 418.400000
11405 676 24133 1 149.00000 418.400000
11405 677 11718 1 149.00000 418.400000
11406 678 11446 1 149.00000 418.400000
11406 679 13667 1 149.00000 418.400000
11406 680 16056 1 149.00000 418.400000
11446 681 15500 1 149.00000 418.400000
11407 682 12674 1 149.00000 418.400000
13822 683 15300 1 149.00000 418.400000
11407 684 13457 1 149.00000 418.400000
11407 685 13822 1 149.00000 418.400000
11408 686 12974 1 149.00000 418.400000
11408 687 11544 1 149.00000 418.400000
11408 688 15487 1 149.00000 418.400000
11408 689 14778 1 149.00000 418.400000
11409 690 11862 1 149.00000 418.400000
11665 691 12780 1 149.00000 418.400000
11409 692 11665 1 149.00000 418.400000
11410 693 13448 1 149.00000 418.400000
11410 694 13716 1 149.00000 418.400000
11410 695 11888 1 149.00000 418.400000
11410 696 19189 1 149.00000 418.400000
11411 697 13458 1 149.00000 418.400000
11411 698 13261 1 149.00000 418.400000
11411 699 11923 1 149.00000 418.400000
11411 700 12579 1 149.00000 418.400000
11412 701 12750 1 149.00000 418.400000
11412 702 14050 1 149.00000 418.400000
11412 703 14294 1 149.00000 418.400000
11413 704 12326 1 149.00000 418.400000
11413 705 13838 1 149.00000 418.400000
11413 706 13911 1 149.00000 418.400000
11413 707 13198 1 149.00000 418.400000
11414 708 19945 1 149.00000 418.400000
11414 709 12532 1 149.00000 418.400000
11414 710 14423 1 149.00000 418.400000
11414 711 13135 1 149.00000 418.400000
11415 712 16248 1 149.00000 418.400000
11415 713 14295 1 149.00000 418.400000
11415 714 14400 1 149.00000 418.400000
14400 715 14813 1 149.00000 418.400000
13123 716 15164 1 149.00000 418.400000
11416 717 15164 1 149.00000 418.400000
11416 718 23497 1 149.00000 418.400000
11417 719 14844 1 149.00000 418.400000
11417 720 12117 1 149.00000 418.400000
11417 721 18877 1 149.00000 418.400000
14080 722 23623 1 149.00000 418.400000
11451 723 13772 1 149.00000 418.400000
13772 724 14080 1 149.00000 418.400000
11418 725 13459 1 149.00000 418.400000
11418 726 13346 1 149.00000 418.400000
11418 727 12227 1 149.00000 418.400000
11418 728 12757 1 149.00000 418.400000
11419 729 12105 1 149.00000 418.400000
11419 730 15700 1 149.00000 418.400000
11419 731 15918 1 149.00000 418.400000
11419 732 12506 1 149.00000 418.400000
11420 733 15292 1 149.00000 418.400000
11420 734 11916 1 149.00000 418.400000
11420 735 15945 1 149.00000 418.400000
11420 736 14525 1 149.00000 418.400000
11421 737 15375 1 149.00000 418.400000
11421 738 12217 1 149.00000 418.400000
11421 739 12212 1 149.00000 418.400000
11421 740 12345 1 149.00000 418.400000
11422 741 18421 1 149.00000 418.400000
11422 742 22069 1 149.00000 418.400000
11422 743 14532 1 149.00000 418.400000
11422 744 23113 1 149.00000 418.400000
11423 745 12126 1 149.00000 418.400000
11423 746 13365 1 149.00000 418.400000
11423 747 13896 1 149.00000 418.400000
11423 748 14616 1 149.00000 418.400000
11424 749 15117 1 149.00000 418.400000
11424 750 14498 1 149.00000 418.400000
11424 751 14997 1 149.00000 418.400000
11424 752 13305 1 149.00000 418.400000
11425 753 12430 1 149.00000 418.400000
11425 754 12414 1 149.00000 418.400000
11425 755 12129 1 149.00000 418.400000
11425 756 11887 1 149.00000 418.400000
11426 757 12358 1 149.00000 418.400000
11426 758 11516 1 149.00000 418.400000
11426 759 12724 1 149.00000 418.400000
11407 760 11426 1 149.00000 418.400000
11427 761 12853 1 149.00000 418.400000
11427 762 12819 1 149.00000 418.400000
11427 763 14721 1 149.00000 418.400000
11427 764 15452 1 149.00000 418.400000
11428 765 13659 1 149.00000 418.400000
11428 766 14245 1 149.00000 418.400000
11428 767 13756 1 149.00000 418.400000
11428 768 14433 1 149.00000 418.400000
11429 769 11888 1 149.00000 418.400000
11327 770 11429 1 149.00000 418.400000
11429 771 13883 1 149.00000 418.400000
11429 772 14414 1 149.00000 418.400000
11430 773 13336 1 149.00000 418.400000
11430 774 14996 1 149.00000 418.400000
11430 775 23473 1 149.00000 418.400000
11431 776 15672 1 149.00000 418.400000
11431 777 13578 1 149.00000 418.400000
13578 778 14157 1 149.00000 418.400000
11432 779 17165 1 149.00000 418.400000
11432 780 13587 1 149.00000 418.400000
11432 781 12297 1 149.00000 418.400000
11432 782 16067 1 149.00000 418.400000
18373 783 24040 1 149.00000 418.400000
12104 784 18373 1 149.00000 418.400000
18373 785 24283 1 149.00000 418.400000
11433 786 14137 1 149.00000 418.400000
11433 787 13020 1 149.00000 418.400000
11433 788 14019 1 149.00000 418.400000
11433 789 15726 1 149.00000 418.400000
16010 790 23626 1 149.00000 418.400000
15832 791 23626 1 149.00000 418.400000
23626 792 24175 1 149.00000 418.400000
14212 793 21853 1 149.00000 418.400000
11434 794 15125 1 149.00000 418.400000
11434 795 15638 1 149.00000 418.400000
11434 796 22081 1 149.00000 418.400000
12478 797 22501 1 149.00000 418.400000
13849 798 22501 1 149.00000 418.400000
20221 799 22501 1 149.00000 418.400000
12832 800 22993 1 149.00000 418.400000
18973 801 22993 1 149.00000 418.400000
11435 802 15397 1 149.00000 418.400000
11435 803 14965 1 149.00000 418.400000
11435 804 12625 1 149.00000 418.400000
11435 805 13416 1 149.00000 418.400000
11436 806 11743 1 149.00000 418.400000
11436 807 15871 1 149.00000 418.400000
11436 808 12977 1 149.00000 418.400000
11743 809 13784 1 149.00000 418.400000
14533 810 15511 1 149.00000 418.400000
11656 811 15511 1 149.00000 418.400000
15511 812 15914 1 149.00000 418.400000
11437 813 15511 1 149.00000 418.400000
11438 814 15154 1 149.00000 418.400000
11438 815 22309 1 149.00000 418.400000
11438 816 13647 1 149.00000 418.400000
11438 817 16025 1 149.00000 418.400000
11439 818 12965 1 149.00000 418.400000
11439 819 15818 1 149.00000 418.400000
11439 820 14570 1 149.00000 418.400000
11439 821 14936 1 149.00000 418.400000
11440 822 12157 1 149.00000 418.400000
11440 823 13289 1 149.00000 418.400000
11440 824 16109 1 149.00000 418.400000
11441 825 16076 1 149.00000 418.400000
15633 826 16076 1 149.00000 418.400000
11441 827 15118 1 149.00000 418.400000
11441 828 11904 1 149.00000 418.400000
11442 829 14789 1 149.00000 418.400000
11442 830 13994 1 149.00000 418.400000
11442 831 14237 1 149.00000 418.400000
11442 832 13886 1 149.00000 418.400000
11443 833 15880 1 149.00000 418.400000
11443 834 15833 1 149.00000 418.400000
11443 835 15405 1 149.00000 418.400000
11443 836 15615 1 149.00000 418.400000
23629 837 24357 1 149.00000 418.400000
20869 838 23629 1 149.00000 418.400000
15464 839 23629 1 149.00000 418.400000
17529 840 22477 1 149.00000 418.400000
11444 841 12498 1 149.00000 418.400000
11444 842 15919 1 149.00000 418.400000
11437 843 11444 1 149.00000 418.400000
11444 844 14454 1 149.00000 418.400000
16675 845 21169 1 149.00000 418.400000
11445 846 14443 1 149.00000 418.400000
11445 847 11868 1 149.00000 418.400000
11445 848 12616 1 149.00000 418.400000
11446 849 14049 1 149.00000 418.400000
11406 850 12922 1 149.00000 418.400000
11446 851 15056 1 149.00000 418.400000
11447 852 15696 1 149.00000 418.400000
11447 853 15346 1 149.00000 418.400000
11447 854 11750 1 149.00000 418.400000
11447 855 12140 1 149.00000 418.400000
11448 856 11498 1 149.00000 418.400000
11448 857 14214 1 149.00000 418.400000
11448 858 12649 1 149.00000 418.400000
11448 859 15525 1 149.00000 418.400000
11449 860 14560 1 149.00000 418.400000
11449 861 12621 1 149.00000 418.400000
11449 862 15996 1 149.00000 418.400000
11449 863 16046 1 149.00000 418.400000
11450 864 21709 1 149.00000 418.400000
11450 865 11479 1 149.00000 418.400000
11479 866 14847 1 149.00000 418.400000
11450 867 24292 1 149.00000 418.400000
11451 868 21625 1 149.00000 418.400000
11451 869 11492 1 149.00000 418.400000
11451 870 13026 1 149.00000 418.400000
11452 871 12649 1 149.00000 418.400000
11452 872 13414 1 149.00000 418.400000
11452 873 14994 1 149.00000 418.400000
11452 874 15420 1 149.00000 418.400000
11453 875 11885 1 149.00000 418.400000
11453 876 11962 1 149.00000 418.400000
11453 877 15248 1 149.00000 418.400000
11453 878 12924 1 149.00000 418.400000
11454 879 15737 1 149.00000 418.400000
11454 880 15046 1 149.00000 418.400000
11454 881 14289 1 149.00000 418.400000
11454 882 12240 1 149.00000 418.400000
11455 883 13234 1 149.00000 418.400000
11455 884 15123 1 149.00000 418.400000
11455 885 14974 1 149.00000 418.400000
11455 886 14241 1 149.00000 418.400000
13781 887 22189 1 149.00000 418.400000
14141 888 22189 1 149.00000 418.400000
12501 889 22189 1 149.00000 418.400000
11456 890 14308 1 149.00000 418.400000
11456 891 13381 1 149.00000 418.400000
11456 892 15855 1 149.00000 418.400000
11456 893 12395 1 149.00000 418.400000
11457 894 11540 1 149.00000 418.400000
12261 895 23704 1 149.00000 418.400000
11540 896 15359 1 149.00000 418.400000
12261 897 14610 1 149.00000 418.400000
11458 898 13814 1 149.00000 418.400000
11458 899 13514 1 149.00000 418.400000
11458 900 12016 1 149.00000 418.400000
11458 901 15714 1 149.00000 418.400000
11977 902 12678 1 149.00000 418.400000
12113 903 12678 1 149.00000 418.400000
11459 904 12678 1 149.00000 418.400000
12678 905 14422 1 149.00000 418.400000
11953 906 14172 1 149.00000 418.400000
11460 907 15192 1 149.00000 418.400000
11460 908 15049 1 149.00000 418.400000
11460 909 14172 1 149.00000 418.400000
11461 910 15152 1 149.00000 418.400000
11461 911 11919 1 149.00000 418.400000
11461 912 15894 1 149.00000 418.400000
11461 913 15792 1 149.00000 418.400000
11462 914 15315 1 149.00000 418.400000
11462 915 13068 1 149.00000 418.400000
11462 916 15059 1 149.00000 418.400000
11462 917 14382 1 149.00000 418.400000
11463 918 11992 1 149.00000 418.400000
11463 919 15751 1 149.00000 418.400000
11463 920 16083 1 149.00000 418.400000
11464 921 15043 1 149.00000 418.400000
11464 922 13730 1 149.00000 418.400000
11464 923 12770 1 149.00000 418.400000
11464 924 11710 1 149.00000 418.400000
11465 925 11474 1 149.00000 418.400000
11465 926 13615 1 149.00000 418.400000
11465 927 11766 1 149.00000 418.400000
11465 928 15954 1 149.00000 418.400000
11466 929 15450 1 149.00000 418.400000
11466 930 14809 1 149.00000 418.400000
11466 931 13480 1 149.00000 418.400000
11466 932 15189 1 149.00000 418.400000
11467 933 13514 1 149.00000 418.400000
11467 934 16021 1 149.00000 418.400000
11467 935 13113 1 149.00000 418.400000
11467 936 14527 1 149.00000 418.400000
11468 937 24181 1 149.00000 418.400000
11468 938 15816 1 149.00000 418.400000
11468 939 12909 1 149.00000 418.400000
11468 940 23815 1 149.00000 418.400000
11469 941 11524 1 149.00000 418.400000
11469 942 15524 1 149.00000 418.400000
11469 943 20029 1 149.00000 418.400000
11469 944 14363 1 149.00000 418.400000
11470 945 15203 1 149.00000 418.400000
11470 946 11631 1 149.00000 418.400000
11470 947 16119 1 149.00000 418.400000
11470 948 16270 1 149.00000 418.400000
11556 949 14515 1 149.00000 418.400000
11471 950 12163 1 149.00000 418.400000
11471 951 14515 1 149.00000 418.400000
11471 952 13425 1 149.00000 418.400000
11472 953 11488 1 149.00000 418.400000
11472 954 13279 1 149.00000 418.400000
11472 955 12489 1 149.00000 418.400000
11472 956 15059 1 149.00000 418.400000
11473 957 11536 1 149.00000 418.400000
11473 958 12183 1 149.00000 418.400000
11536 959 13216 1 149.00000 418.400000
12183 960 12514 1 149.00000 418.400000
11474 961 15233 1 149.00000 418.400000
11474 962 14358 1 149.00000 418.400000
11474 963 14256 1 149.00000 418.400000
15817 964 17669 1 149.00000 418.400000
13042 965 17669 1 149.00000 418.400000
11475 966 12649 1 149.00000 418.400000
11475 967 13918 1 149.00000 418.400000
11475 968 14386 1 149.00000 418.400000
11475 969 15991 1 149.00000 418.400000
11476 970 15503 1 149.00000 418.400000
11476 971 11742 1 149.00000 418.400000
11476 972 12065 1 149.00000 418.400000
11476 973 11661 1 149.00000 418.400000
11477 974 14421 1 149.00000 418.400000
11477 975 23974 1 149.00000 418.400000
11477 976 15607 1 149.00000 418.400000
11477 977 14411 1 149.00000 418.400000
23632 978 24280 1 149.00000 418.400000
14999 979 23632 1 149.00000 418.400000
23632 980 23845 1 149.00000 418.400000
11478 981 14626 1 149.00000 418.400000
11905 982 14626 1 149.00000 418.400000
11478 983 12053 1 149.00000 418.400000
11478 984 11589 1 149.00000 418.400000
11761 985 24472 1 149.00000 418.400000
11450 986 16465 1 149.00000 418.400000
11479 987 12595 1 149.00000 418.400000
11479 988 15388 1 149.00000 418.400000
11480 989 16071 1 149.00000 418.400000
11480 990 16257 1 149.00000 418.400000
11480 991 18349 1 149.00000 418.400000
11480 992 11516 1 149.00000 418.400000
11481 993 13125 1 149.00000 418.400000
11481 994 16090 1 149.00000 418.400000
11481 995 11642 1 149.00000 418.400000
11482 996 16199 1 149.00000 418.400000
11482 997 16053 1 149.00000 418.400000
11482 998 15734 1 149.00000 418.400000
11482 999 12362 1 149.00000 418.400000
11483 1000 12994 1 149.00000 418.400000
11483 1001 16140 1 149.00000 418.400000
11483 1002 15828 1 149.00000 418.400000
11483 1003 15061 1 149.00000 418.400000
11484 1004 12168 1 149.00000 418.400000
11484 1005 11885 1 149.00000 418.400000
11484 1006 14611 1 149.00000 418.400000
11484 1007 13972 1 149.00000 418.400000
11485 1008 11515 1 149.00000 418.400000
11485 1009 15007 1 149.00000 418.400000
14683 1010 15017 1 149.00000 418.400000
11485 1011 14683 1 149.00000 418.400000
11486 1012 14358 1 149.00000 418.400000
11486 1013 15366 1 149.00000 418.400000
11486 1014 15954 1 149.00000 418.400000
11486 1015 12384 1 149.00000 418.400000
11487 1016 11752 1 149.00000 418.400000
11487 1017 15612 1 149.00000 418.400000
11487 1018 13777 1 149.00000 418.400000
11487 1019 12252 1 149.00000 418.400000
11488 1020 21925 1 149.00000 418.400000
11488 1021 24139 1 149.00000 418.400000
11488 1022 23686 1 149.00000 418.400000
11489 1023 15419 1 149.00000 418.400000
11489 1024 15799 1 149.00000 418.400000
11489 1025 12972 1 149.00000 418.400000
11489 1026 15950 1 149.00000 418.400000
11934 1027 19081 1 149.00000 418.400000
12030 1028 19081 1 149.00000 418.400000
15193 1029 19081 1 149.00000 418.400000
11459 1030 11490 1 149.00000 418.400000
11490 1031 15517 1 149.00000 418.400000
11490 1032 14406 1 149.00000 418.400000
11490 1033 15065 1 149.00000 418.400000
23149 1034 23635 1 149.00000 418.400000
13908 1035 23635 1 149.00000 418.400000
14971 1036 23656 1 149.00000 418.400000
14971 1037 18673 1 149.00000 418.400000
12882 1038 14971 1 149.00000 418.400000
11491 1039 14971 1 149.00000 418.400000
11492 1040 21577 1 149.00000 418.400000
11492 1041 14897 1 149.00000 418.400000
11492 1042 11493 1 149.00000 418.400000
11493 1043 14458 1 149.00000 418.400000
11493 1044 23221 1 149.00000 418.400000
11494 1045 14988 1 149.00000 418.400000
11494 1046 15500 1 149.00000 418.400000
11494 1047 11561 1 149.00000 418.400000
11494 1048 15056 1 149.00000 418.400000
11495 1049 14843 1 149.00000 418.400000
11495 1050 15377 1 149.00000 418.400000
11495 1051 14377 1 149.00000 418.400000
11496 1052 11627 1 149.00000 418.400000
11496 1053 15287 1 149.00000 418.400000
11496 1054 15001 1 149.00000 418.400000
11496 1055 12385 1 149.00000 418.400000
11497 1056 11675 1 149.00000 418.400000
11497 1057 15620 1 149.00000 418.400000
11497 1058 14135 1 149.00000 418.400000
11497 1059 15042 1 149.00000 418.400000
11498 1060 15426 1 149.00000 418.400000
11498 1061 15169 1 149.00000 418.400000
12693 1062 15426 1 149.00000 418.400000
13023 1063 13232 1 149.00000 418.400000
11499 1064 13023 1 149.00000 418.400000
13023 1065 14549 1 149.00000 418.400000
11500 1066 13496 1 149.00000 418.400000
11500 1067 14323 1 149.00000 418.400000
11500 1068 14349 1 149.00000 418.400000
11500 1069 12184 1 149.00000 418.400000
11501 1070 15592 1 149.00000 418.400000
11501 1071 16160 1 149.00000 418.400000
11501 1072 14739 1 149.00000 418.400000
11502 1073 23656 1 149.00000 418.400000
11502 1074 16266 1 149.00000 418.400000
11502 1075 22909 1 149.00000 418.400000
11502 1076 24043 1 149.00000 418.400000
11503 1077 13352 1 149.00000 418.400000
11503 1078 13630 1 149.00000 418.400000
11503 1079 16125 1 149.00000 418.400000
11503 1080 14931 1 149.00000 418.400000
11504 1081 15453 1 149.00000 418.400000
11504 1082 12454 1 149.00000 418.400000
11504 1083 20713 1 149.00000 418.400000
11504 1084 14226 1 149.00000 418.400000
11505 1085 13182 1 149.00000 418.400000
11505 1086 12289 1 149.00000 418.400000
11505 1087 13826 1 149.00000 418.400000
11505 1088 12860 1 149.00000 418.400000
11506 1089 13864 1 149.00000 418.400000
11506 1090 14479 1 149.00000 418.400000
11506 1091 12915 1 149.00000 418.400000
11506 1092 15875 1 149.00000 418.400000
11507 1093 12891 1 149.00000 418.400000
11507 1094 13976 1 149.00000 418.400000
11507 1095 15932 1 149.00000 418.400000
11508 1096 13995 1 149.00000 418.400000
11508 1097 13007 1 149.00000 418.400000
11508 1098 14051 1 149.00000 418.400000
11508 1099 12528 1 149.00000 418.400000
11509 1100 12871 1 149.00000 418.400000
11509 1101 12907 1 149.00000 418.400000
11509 1102 14842 1 149.00000 418.400000
11509 1103 16124 1 149.00000 418.400000
11510 1104 15645 1 149.00000 418.400000
11510 1105 14614 1 149.00000 418.400000
11510 1106 16232 1 149.00000 418.400000
11511 1107 11992 1 149.00000 418.400000
11992 1108 16061 1 149.00000 418.400000
11992 1109 13070 1 149.00000 418.400000
21829 1110 23923 1 149.00000 418.400000
13199 1111 21829 1 149.00000 418.400000
21121 1112 21829 1 149.00000 418.400000
11512 1113 16033 1 149.00000 418.400000
14235 1114 16033 1 149.00000 418.400000
11512 1115 15047 1 149.00000 418.400000
11512 1116 11624 1 149.00000 418.400000
11513 1117 13527 1 149.00000 418.400000
11513 1118 18949 1 149.00000 418.400000
11513 1119 15304 1 149.00000 418.400000
11513 1120 19981 1 149.00000 418.400000
11514 1121 12916 1 149.00000 418.400000
11514 1122 15398 1 149.00000 418.400000
11514 1123 17375 1 149.00000 418.400000
11514 1124 14922 1 149.00000 418.400000
11515 1125 15661 1 149.00000 418.400000
11515 1126 15206 1 149.00000 418.400000
11515 1127 15917 1 149.00000 418.400000
11516 1128 11811 1 149.00000 418.400000
11516 1129 12666 1 149.00000 418.400000
11517 1130 15197 1 149.00000 418.400000
11377 1131 14818 1 149.00000 418.400000
11517 1132 14863 1 149.00000 418.400000
11518 1133 13667 1 149.00000 418.400000
11518 1134 12181 1 149.00000 418.400000
11518 1135 13713 1 149.00000 418.400000
11518 1136 13627 1 149.00000 418.400000
15510 1137 23971 1 149.00000 418.400000
11519 1138 15068 1 149.00000 418.400000
11519 1139 12553 1 149.00000 418.400000
11519 1140 15128 1 149.00000 418.400000
11519 1141 11679 1 149.00000 418.400000
11520 1142 11944 1 149.00000 418.400000
11520 1143 11534 1 149.00000 418.400000
11520 1144 13006 1 149.00000 418.400000
11520 1145 13247 1 149.00000 418.400000
11521 1146 16075 1 149.00000 418.400000
11521 1147 12650 1 149.00000 418.400000
11521 1148 23854 1 149.00000 418.400000
11521 1149 15574 1 149.00000 418.400000
11522 1150 13326 1 149.00000 418.400000
13326 1151 13780 1 149.00000 418.400000
11522 1152 12181 1 149.00000 418.400000
11523 1153 16183 1 149.00000 418.400000
11523 1154 18529 1 149.00000 418.400000
11523 1155 14472 1 149.00000 418.400000
11523 1156 14698 1 149.00000 418.400000
11524 1157 15786 1 149.00000 418.400000
11524 1158 11799 1 149.00000 418.400000
11524 1159 14583 1 149.00000 418.400000
12849 1160 15339 1 149.00000 418.400000
11525 1161 11887 1 149.00000 418.400000
11525 1162 12849 1 149.00000 418.400000
12849 1163 13159 1 149.00000 418.400000
11526 1164 14022 1 149.00000 418.400000
11526 1165 15978 1 149.00000 418.400000
11526 1166 13354 1 149.00000 418.400000
11526 1167 13708 1 149.00000 418.400000
11527 1168 16081 1 149.00000 418.400000
11527 1169 14762 1 149.00000 418.400000
11527 1170 21361 1 149.00000 418.400000
11527 1171 23917 1 149.00000 418.400000
11528 1172 13669 1 149.00000 418.400000
11528 1173 14632 1 149.00000 418.400000
11528 1174 12624 1 149.00000 418.400000
11528 1175 13864 1 149.00000 418.400000
11529 1176 15584 1 149.00000 418.400000
11529 1177 14085 1 149.00000 418.400000
11529 1178 15599 1 149.00000 418.400000
15711 1179 17627 1 149.00000 418.400000
16997 1180 17627 1 149.00000 418.400000
11530 1181 14910 1 149.00000 418.400000
11530 1182 14086 1 149.00000 418.400000
11530 1183 15705 1 149.00000 418.400000
11530 1184 15126 1 149.00000 418.400000
11531 1185 13548 1 149.00000 418.400000
11531 1186 11932 1 149.00000 418.400000
11531 1187 11635 1 149.00000 418.400000
11531 1188 16055 1 149.00000 418.400000
11532 1189 12824 1 149.00000 418.400000
11532 1190 15969 1 149.00000 418.400000
11532 1191 14293 1 149.00000 418.400000
12824 1192 14112 1 149.00000 418.400000
11533 1193 13730 1 149.00000 418.400000
11533 1194 13566 1 149.00000 418.400000
11533 1195 11759 1 149.00000 418.400000
11533 1196 12630 1 149.00000 418.400000
11301 1197 11534 1 149.00000 418.400000
11534 1198 15772 1 149.00000 418.400000
13327 1199 14535 1 149.00000 418.400000
11535 1200 14045 1 149.00000 418.400000
11535 1201 13327 1 149.00000 418.400000
11535 1202 14563 1 149.00000 418.400000
11473 1203 12371 1 149.00000 418.400000
11536 1204 12601 1 149.00000 418.400000
11536 1205 12585 1 149.00000 418.400000
11945 1206 22177 1 149.00000 418.400000
18047 1207 22177 1 149.00000 418.400000
11537 1208 14728 1 149.00000 418.400000
11537 1209 13587 1 149.00000 418.400000
11537 1210 13280 1 149.00000 418.400000
11538 1211 13712 1 149.00000 418.400000
11315 1212 11538 1 149.00000 418.400000
11538 1213 15028 1 149.00000 418.400000
11538 1214 12290 1 149.00000 418.400000
11539 1215 15941 1 149.00000 418.400000
11539 1216 21913 1 149.00000 418.400000
11539 1217 14517 1 149.00000 418.400000
11539 1218 11585 1 149.00000 418.400000
11540 1219 14194 1 149.00000 418.400000
11457 1220 15331 1 149.00000 418.400000
11540 1221 15659 1 149.00000 418.400000
23638 1222 24205 1 149.00000 418.400000
12314 1223 23638 1 149.00000 418.400000
23638 1224 24265 1 149.00000 418.400000
11541 1225 11562 1 149.00000 418.400000
11541 1226 14863 1 149.00000 418.400000
11541 1227 15953 1 149.00000 418.400000
11541 1228 12843 1 149.00000 418.400000
11542 1229 13599 1 149.00000 418.400000
11542 1230 15923 1 149.00000 418.400000
11542 1231 20353 1 149.00000 418.400000
11542 1232 12917 1 149.00000 418.400000
11543 1233 14568 1 149.00000 418.400000
11543 1234 15015 1 149.00000 418.400000
11543 1235 12996 1 149.00000 418.400000
11543 1236 14470 1 149.00000 418.400000
19261 1237 24037 1 149.00000 418.400000
15345 1238 19261 1 149.00000 418.400000
13401 1239 19261 1 149.00000 418.400000
11544 1240 24019 1 149.00000 418.400000
11544 1241 13275 1 149.00000 418.400000
11544 1242 12613 1 149.00000 418.400000
11545 1243 14816 1 149.00000 418.400000
11545 1244 15376 1 149.00000 418.400000
11545 1245 15726 1 149.00000 418.400000
11546 1246 13653 1 149.00000 418.400000
11546 1247 11697 1 149.00000 418.400000
11546 1248 14963 1 149.00000 418.400000
11546 1249 13856 1 149.00000 418.400000
11547 1250 15324 1 149.00000 418.400000
11547 1251 12702 1 149.00000 418.400000
11547 1252 12284 1 149.00000 418.400000
11547 1253 14021 1 149.00000 418.400000
11548 1254 13977 1 149.00000 418.400000
11548 1255 13787 1 149.00000 418.400000
11548 1256 11596 1 149.00000 418.400000
11548 1257 15888 1 149.00000 418.400000
12605 1258 23662 1 149.00000 418.400000
11549 1259 24190 1 149.00000 418.400000
11549 1260 24256 1 149.00000 418.400000
11549 1261 12987 1 149.00000 418.400000
11549 1262 16161 1 149.00000 418.400000
11550 1263 16213 1 149.00000 418.400000
11550 1264 15246 1 149.00000 418.400000
11550 1265 12176 1 149.00000 418.400000
11551 1266 13396 1 149.00000 418.400000
11551 1267 15087 1 149.00000 418.400000
11551 1268 13510 1 149.00000 418.400000
11551 1269 20221 1 149.00000 418.400000
11552 1270 14277 1 149.00000 418.400000
11552 1271 16269 1 149.00000 418.400000
11552 1272 13687 1 149.00000 418.400000
11552 1273 12255 1 149.00000 418.400000
11553 1274 15996 1 149.00000 418.400000
11553 1275 12935 1 149.00000 418.400000
11553 1276 13524 1 149.00000 418.400000
11553 1277 12933 1 149.00000 418.400000
11554 1278 12284 1 149.00000 418.400000
11554 1279 12005 1 149.00000 418.400000
11554 1280 13934 1 149.00000 418.400000
11554 1281 15327 1 149.00000 418.400000
11555 1282 14545 1 149.00000 418.400000
11555 1283 14671 1 149.00000 418.400000
12086 1284 16110 1 149.00000 418.400000
11555 1285 16110 1 149.00000 418.400000
14627 1286 20161 1 149.00000 418.400000
14627 1287 16147 1 149.00000 418.400000
18685 1288 20161 1 149.00000 418.400000
11556 1289 13117 1 149.00000 418.400000
11556 1290 14575 1 149.00000 418.400000
11556 1291 21733 1 149.00000 418.400000
11557 1292 15350 1 149.00000 418.400000
11557 1293 15725 1 149.00000 418.400000
11557 1294 15579 1 149.00000 418.400000
11557 1295 16115 1 149.00000 418.400000
11558 1296 15247 1 149.00000 418.400000
11558 1297 14791 1 149.00000 418.400000
11558 1298 11874 1 149.00000 418.400000
11559 1299 11667 1 149.00000 418.400000
11559 1300 15691 1 149.00000 418.400000
11559 1301 12054 1 149.00000 418.400000
11559 1302 12512 1 149.00000 418.400000
11560 1303 14896 1 149.00000 418.400000
14045 1304 15747 1 149.00000 418.400000
11560 1305 14045 1 149.00000 418.400000
11560 1306 15648 1 149.00000 418.400000
11561 1307 14402 1 149.00000 418.400000
11561 1308 11615 1 149.00000 418.400000
11561 1309 12615 1 149.00000 418.400000
11562 1310 15790 1 149.00000 418.400000
11562 1311 14165 1 149.00000 418.400000
11491 1312 11562 1 149.00000 418.400000
11563 1313 11875 1 149.00000 418.400000
11563 1314 16033 1 149.00000 418.400000
11563 1315 13144 1 149.00000 418.400000
11563 1316 12000 1 149.00000 418.400000
11564 1317 12633 1 149.00000 418.400000
11564 1318 14325 1 149.00000 418.400000
11564 1319 15953 1 149.00000 418.400000
11564 1320 14165 1 149.00000 418.400000
11565 1321 14277 1 149.00000 418.400000
11565 1322 14294 1 149.00000 418.400000
11565 1323 15784 1 149.00000 418.400000
11565 1324 11847 1 149.00000 418.400000
11566 1325 23698 1 149.00000 418.400000
11566 1326 14485 1 149.00000 418.400000
11566 1327 16689 1 149.00000 418.400000
11566 1328 14069 1 149.00000 418.400000
19561 1329 23833 1 149.00000 418.400000
23833 1330 24076 1 149.00000 418.400000
12278 1331 19561 1 149.00000 418.400000
11567 1332 15172 1 149.00000 418.400000
11567 1333 14907 1 149.00000 418.400000
11567 1334 14117 1 149.00000 418.400000
11567 1335 13510 1 149.00000 418.400000
11568 1336 13799 1 149.00000 418.400000
11568 1337 15242 1 149.00000 418.400000
11568 1338 12366 1 149.00000 418.400000
11568 1339 14011 1 149.00000 418.400000
11569 1340 15520 1 149.00000 418.400000
11569 1341 13411 1 149.00000 418.400000
11569 1342 15784 1 149.00000 418.400000
11731 1343 18299 1 149.00000 418.400000
11651 1344 18299 1 149.00000 418.400000
11570 1345 12246 1 149.00000 418.400000
11570 1346 11757 1 149.00000 418.400000
11570 1347 14057 1 149.00000 418.400000
11570 1348 15998 1 149.00000 418.400000
13306 1349 15400 1 149.00000 418.400000
13306 1350 15114 1 149.00000 418.400000
11571 1351 13306 1 149.00000 418.400000
15008 1352 15114 1 149.00000 418.400000
11572 1353 13874 1 149.00000 418.400000
14861 1354 14952 1 149.00000 418.400000
11572 1355 15977 1 149.00000 418.400000
11572 1356 14861 1 149.00000 418.400000
12040 1357 15586 1 149.00000 418.400000
11573 1358 15113 1 149.00000 418.400000
12040 1359 14204 1 149.00000 418.400000
11573 1360 12040 1 149.00000 418.400000
11574 1361 16021 1 149.00000 418.400000
11574 1362 15573 1 149.00000 418.400000
11574 1363 13561 1 149.00000 418.400000
11574 1364 11709 1 149.00000 418.400000
11575 1365 13798 1 149.00000 418.400000
11575 1366 12009 1 149.00000 418.400000
11575 1367 14729 1 149.00000 418.400000
11575 1368 13445 1 149.00000 418.400000
11576 1369 23860 1 149.00000 418.400000
11576 1370 14506 1 149.00000 418.400000
11576 1371 13850 1 149.00000 418.400000
11576 1372 18325 1 149.00000 418.400000
11577 1373 11978 1 149.00000 418.400000
11577 1374 13416 1 149.00000 418.400000
11577 1375 15037 1 149.00000 418.400000
11578 1376 12643 1 149.00000 418.400000
11578 1377 15339 1 149.00000 418.400000
11578 1378 14113 1 149.00000 418.400000
11578 1379 12282 1 149.00000 418.400000
14373 1380 23641 1 149.00000 418.400000
22585 1381 23641 1 149.00000 418.400000
15238 1382 23641 1 149.00000 418.400000
11579 1383 14725 1 149.00000 418.400000
11579 1384 15920 1 149.00000 418.400000
11579 1385 15308 1 149.00000 418.400000
11579 1386 14504 1 149.00000 418.400000
23644 1387 23827 1 149.00000 418.400000
14420 1388 23644 1 149.00000 418.400000
15470 1389 23644 1 149.00000 418.400000
11580 1390 14846 1 149.00000 418.400000
11580 1391 13143 1 149.00000 418.400000
11580 1392 13039 1 149.00000 418.400000
11580 1393 12431 1 149.00000 418.400000
11581 1394 14951 1 149.00000 418.400000
11581 1395 13388 1 149.00000 418.400000
11581 1396 12163 1 149.00000 418.400000
11581 1397 14575 1 149.00000 418.400000
11582 1398 13904 1 149.00000 418.400000
11582 1399 12752 1 149.00000 418.400000
11582 1400 14222 1 149.00000 418.400000
11582 1401 13436 1 149.00000 418.400000
11583 1402 14743 1 149.00000 418.400000
13814 1403 15744 1 149.00000 418.400000
11583 1404 13418 1 149.00000 418.400000
11583 1405 13814 1 149.00000 418.400000
12074 1406 21865 1 149.00000 418.400000
21865 1407 24262 1 149.00000 418.400000
15132 1408 21865 1 149.00000 418.400000
12056 1409 14817 1 149.00000 418.400000
11584 1410 14817 1 149.00000 418.400000
11584 1411 15416 1 149.00000 418.400000
11584 1412 14948 1 149.00000 418.400000
14390 1413 18019 1 149.00000 418.400000
17081 1414 18019 1 149.00000 418.400000
11585 1415 16026 1 149.00000 418.400000
11585 1416 11704 1 149.00000 418.400000
11585 1417 14474 1 149.00000 418.400000
11586 1418 15073 1 149.00000 418.400000
11586 1419 15625 1 149.00000 418.400000
11586 1420 12973 1 149.00000 418.400000
11586 1421 12993 1 149.00000 418.400000
11587 1422 13421 1 149.00000 418.400000
11587 1423 12235 1 149.00000 418.400000
11587 1424 12486 1 149.00000 418.400000
11587 1425 15245 1 149.00000 418.400000
11588 1426 12715 1 149.00000 418.400000
11588 1427 12706 1 149.00000 418.400000
11588 1428 16235 1 149.00000 418.400000
11588 1429 14305 1 149.00000 418.400000
11589 1430 14881 1 149.00000 418.400000
11589 1431 13869 1 149.00000 418.400000
11589 1432 14892 1 149.00000 418.400000
11590 1433 13031 1 149.00000 418.400000
11590 1434 11882 1 149.00000 418.400000
11590 1435 15006 1 149.00000 418.400000
11591 1436 15559 1 149.00000 418.400000
11591 1437 13478 1 149.00000 418.400000
11591 1438 15373 1 149.00000 418.400000
11591 1439 12097 1 149.00000 418.400000
11592 1440 13667 1 149.00000 418.400000
11592 1441 14730 1 149.00000 418.400000
11592 1442 15988 1 149.00000 418.400000
15579 1443 23365 1 149.00000 418.400000
20929 1444 23365 1 149.00000 418.400000
11593 1445 14118 1 149.00000 418.400000
11593 1446 16022 1 149.00000 418.400000
11593 1447 16273 1 149.00000 418.400000
11593 1448 12726 1 149.00000 418.400000
16116 1449 18337 1 149.00000 418.400000
18337 1450 19273 1 149.00000 418.400000
11594 1451 12500 1 149.00000 418.400000
11594 1452 15569 1 149.00000 418.400000
11594 1453 14314 1 149.00000 418.400000
11595 1454 14199 1 149.00000 418.400000
11595 1455 22141 1 149.00000 418.400000
11595 1456 15242 1 149.00000 418.400000
11596 1457 13553 1 149.00000 418.400000
11596 1458 16084 1 149.00000 418.400000
11596 1459 15998 1 149.00000 418.400000
12333 1460 14949 1 149.00000 418.400000
11597 1461 14697 1 149.00000 418.400000
11597 1462 15565 1 149.00000 418.400000
13665 1463 14830 1 149.00000 418.400000
11598 1464 14393 1 149.00000 418.400000
11598 1465 14035 1 149.00000 418.400000
11598 1466 14071 1 149.00000 418.400000
11598 1467 14834 1 149.00000 418.400000
11958 1468 15786 1 149.00000 418.400000
12286 1469 13936 1 149.00000 418.400000
11958 1470 17319 1 149.00000 418.400000
12286 1471 17319 1 149.00000 418.400000
11599 1472 12097 1 149.00000 418.400000
11599 1473 13144 1 149.00000 418.400000
11599 1474 12452 1 149.00000 418.400000
11599 1475 12931 1 149.00000 418.400000
20521 1476 20785 1 149.00000 418.400000
14170 1477 20785 1 149.00000 418.400000
11600 1478 14746 1 149.00000 418.400000
11600 1479 15600 1 149.00000 418.400000
11600 1480 14983 1 149.00000 418.400000
11600 1481 16325 1 149.00000 418.400000
11601 1482 13980 1 149.00000 418.400000
11601 1483 15197 1 149.00000 418.400000
11601 1484 12001 1 149.00000 418.400000
11601 1485 15588 1 149.00000 418.400000
11602 1486 13935 1 149.00000 418.400000
11602 1487 15176 1 149.00000 418.400000
11602 1488 15701 1 149.00000 418.400000
11602 1489 14734 1 149.00000 418.400000
11603 1490 13302 1 149.00000 418.400000
11603 1491 13596 1 149.00000 418.400000
11603 1492 12045 1 149.00000 418.400000
11603 1493 14611 1 149.00000 418.400000
11604 1494 11929 1 149.00000 418.400000
11604 1495 18117 1 149.00000 418.400000
11604 1496 12758 1 149.00000 418.400000
11604 1497 12608 1 149.00000 418.400000
11605 1498 15490 1 149.00000 418.400000
12139 1499 13444 1 149.00000 418.400000
11605 1500 12139 1 149.00000 418.400000
11605 1501 11789 1 149.00000 418.400000
11606 1502 12070 1 149.00000 418.400000
11606 1503 12693 1 149.00000 418.400000
11606 1504 14681 1 149.00000 418.400000
11606 1505 14127 1 149.00000 418.400000
11607 1506 13889 1 149.00000 418.400000
11607 1507 13489 1 149.00000 418.400000
11607 1508 14688 1 149.00000 418.400000
11607 1509 15806 1 149.00000 418.400000
11608 1510 13527 1 149.00000 418.400000
11608 1511 14247 1 149.00000 418.400000
11608 1512 15168 1 149.00000 418.400000
11608 1513 15119 1 149.00000 418.400000
11609 1514 12719 1 149.00000 418.400000
11609 1515 14882 1 149.00000 418.400000
11609 1516 14557 1 149.00000 418.400000
11609 1517 14537 1 149.00000 418.400000
11610 1518 14039 1 149.00000 418.400000
11610 1519 14096 1 149.00000 418.400000
11610 1520 11908 1 149.00000 418.400000
11610 1521 15788 1 149.00000 418.400000
11611 1522 14155 1 149.00000 418.400000
11611 1523 14351 1 149.00000 418.400000
11611 1524 13627 1 149.00000 418.400000
11611 1525 15105 1 149.00000 418.400000
11612 1526 24372 1 149.00000 418.400000
11612 1527 14349 1 149.00000 418.400000
11612 1528 15666 1 149.00000 418.400000
11612 1529 13591 1 149.00000 418.400000
11613 1530 15227 1 149.00000 418.400000
11613 1531 15924 1 149.00000 418.400000
11613 1532 14229 1 149.00000 418.400000
11613 1533 13692 1 149.00000 418.400000
11614 1534 14422 1 149.00000 418.400000
11614 1535 14641 1 149.00000 418.400000
11614 1536 14686 1 149.00000 418.400000
11614 1537 15153 1 149.00000 418.400000
11615 1538 16056 1 149.00000 418.400000
11615 1539 12752 1 149.00000 418.400000
11615 1540 14320 1 149.00000 418.400000
13285 1541 23647 1 149.00000 418.400000
14376 1542 23647 1 149.00000 418.400000
11616 1543 16108 1 149.00000 418.400000
11616 1544 12335 1 149.00000 418.400000
11616 1545 13845 1 149.00000 418.400000
11616 1546 13483 1 149.00000 418.400000
11617 1547 12240 1 149.00000 418.400000
11617 1548 11806 1 149.00000 418.400000
11617 1549 14838 1 149.00000 418.400000
11617 1550 13460 1 149.00000 418.400000
11618 1551 14761 1 149.00000 418.400000
11618 1552 13518 1 149.00000 418.400000
11618 1553 15102 1 149.00000 418.400000
11618 1554 14470 1 149.00000 418.400000
11619 1555 12144 1 149.00000 418.400000
11619 1556 13768 1 149.00000 418.400000
11619 1557 14336 1 149.00000 418.400000
11619 1558 14535 1 149.00000 418.400000
11620 1559 14913 1 149.00000 418.400000
11620 1560 14812 1 149.00000 418.400000
11620 1561 15241 1 149.00000 418.400000
11620 1562 16001 1 149.00000 418.400000
11621 1563 18769 1 149.00000 418.400000
11621 1564 13795 1 149.00000 418.400000
11621 1565 12108 1 149.00000 418.400000
11621 1566 23680 1 149.00000 418.400000
11622 1567 11680 1 149.00000 418.400000
12243 1568 15827 1 149.00000 418.400000
11622 1569 12243 1 149.00000 418.400000
11622 1570 13494 1 149.00000 418.400000
11623 1571 12096 1 149.00000 418.400000
11623 1572 15650 1 149.00000 418.400000
11623 1573 15441 1 149.00000 418.400000
11623 1574 12075 1 149.00000 418.400000
11624 1575 15587 1 149.00000 418.400000
11838 1576 15587 1 149.00000 418.400000
11624 1577 15888 1 149.00000 418.400000
11624 1578 14440 1 149.00000 418.400000
11625 1579 13330 1 149.00000 418.400000
11625 1580 14561 1 149.00000 418.400000
11625 1581 12811 1 149.00000 418.400000
11625 1582 14288 1 149.00000 418.400000
11626 1583 11975 1 149.00000 418.400000
11626 1584 12852 1 149.00000 418.400000
11626 1585 13399 1 149.00000 418.400000
11627 1586 12289 1 149.00000 418.400000
11627 1587 16172 1 149.00000 418.400000
12206 1588 16172 1 149.00000 418.400000
11628 1589 15364 1 149.00000 418.400000
11628 1590 13506 1 149.00000 418.400000
11628 1591 15215 1 149.00000 418.400000
11628 1592 15318 1 149.00000 418.400000
11629 1593 15524 1 149.00000 418.400000
11629 1594 13016 1 149.00000 418.400000
11629 1595 14691 1 149.00000 418.400000
11630 1596 16080 1 149.00000 418.400000
11374 1597 11630 1 149.00000 418.400000
11630 1598 15147 1 149.00000 418.400000
11631 1599 13873 1 149.00000 418.400000
11631 1600 13628 1 149.00000 418.400000
11631 1601 11671 1 149.00000 418.400000
11632 1602 12036 1 149.00000 418.400000
11632 1603 13069 1 149.00000 418.400000
11632 1604 13551 1 149.00000 418.400000
11633 1605 12997 1 149.00000 418.400000
11633 1606 13975 1 149.00000 418.400000
11633 1607 14243 1 149.00000 418.400000
11633 1608 12211 1 149.00000 418.400000
11634 1609 13493 1 149.00000 418.400000
11634 1610 13995 1 149.00000 418.400000
11634 1611 12709 1 149.00000 418.400000
13493 1612 15407 1 149.00000 418.400000
11635 1613 12646 1 149.00000 418.400000
11635 1614 15775 1 149.00000 418.400000
11635 1615 15859 1 149.00000 418.400000
11636 1616 12467 1 149.00000 418.400000
11636 1617 12657 1 149.00000 418.400000
11636 1618 13645 1 149.00000 418.400000
11648 1619 13491 1 149.00000 418.400000
11637 1620 13491 1 149.00000 418.400000
11637 1621 14115 1 149.00000 418.400000
11637 1622 14486 1 149.00000 418.400000
18313 1623 23053 1 149.00000 418.400000
12837 1624 23053 1 149.00000 418.400000
11764 1625 23053 1 149.00000 418.400000
11638 1626 13727 1 149.00000 418.400000
11638 1627 12196 1 149.00000 418.400000
11638 1628 13483 1 149.00000 418.400000
11638 1629 14427 1 149.00000 418.400000
11639 1630 15514 1 149.00000 418.400000
11639 1631 15961 1 149.00000 418.400000
11639 1632 15594 1 149.00000 418.400000
13105 1633 15961 1 149.00000 418.400000
20041 1634 23650 1 149.00000 418.400000
21265 1635 23650 1 149.00000 418.400000
13399 1636 23650 1 149.00000 418.400000
11640 1637 15702 1 149.00000 418.400000
11640 1638 14681 1 149.00000 418.400000
11640 1639 13901 1 149.00000 418.400000
11640 1640 14956 1 149.00000 418.400000
11641 1641 13328 1 149.00000 418.400000
11641 1642 12540 1 149.00000 418.400000
11641 1643 23806 1 149.00000 418.400000
19837 1644 22093 1 149.00000 418.400000
15346 1645 22093 1 149.00000 418.400000
14397 1646 22093 1 149.00000 418.400000
11511 1647 14144 1 149.00000 418.400000
12127 1648 13117 1 149.00000 418.400000
11511 1649 12127 1 149.00000 418.400000
13014 1650 18553 1 149.00000 418.400000
16057 1651 18553 1 149.00000 418.400000
11643 1652 24312 1 149.00000 418.400000
11643 1653 12573 1 149.00000 418.400000
11643 1654 11786 1 149.00000 418.400000
13000 1655 24312 1 149.00000 418.400000
11644 1656 16092 1 149.00000 418.400000
11644 1657 13206 1 149.00000 418.400000
11644 1658 14309 1 149.00000 418.400000
11644 1659 12207 1 149.00000 418.400000
11645 1660 12552 1 149.00000 418.400000
11645 1661 16266 1 149.00000 418.400000
11645 1662 15271 1 149.00000 418.400000
11645 1663 13523 1 149.00000 418.400000
11646 1664 13015 1 149.00000 418.400000
11646 1665 12474 1 149.00000 418.400000
11646 1666 12624 1 149.00000 418.400000
11646 1667 15348 1 149.00000 418.400000
11647 1668 14987 1 149.00000 418.400000
11647 1669 15314 1 149.00000 418.400000
11647 1670 16242 1 149.00000 418.400000
11647 1671 12055 1 149.00000 418.400000
11648 1672 13415 1 149.00000 418.400000
11648 1673 13583 1 149.00000 418.400000
11649 1674 15497 1 149.00000 418.400000
11649 1675 13823 1 149.00000 418.400000
11649 1676 14683 1 149.00000 418.400000
11649 1677 12690 1 149.00000 418.400000
11650 1678 15332 1 149.00000 418.400000
11650 1679 12472 1 149.00000 418.400000
11650 1680 14237 1 149.00000 418.400000
11651 1681 14471 1 149.00000 418.400000
11651 1682 14206 1 149.00000 418.400000
11651 1683 24392 1 149.00000 418.400000
17543 1684 21733 1 149.00000 418.400000
18889 1685 22933 1 149.00000 418.400000
13753 1686 17109 1 149.00000 418.400000
13753 1687 23653 1 149.00000 418.400000
13185 1688 23653 1 149.00000 418.400000
12257 1689 21745 1 149.00000 418.400000
14605 1690 21745 1 149.00000 418.400000
14759 1691 21745 1 149.00000 418.400000
11652 1692 13644 1 149.00000 418.400000
11652 1693 13109 1 149.00000 418.400000
11652 1694 15380 1 149.00000 418.400000
11652 1695 14028 1 149.00000 418.400000
12276 1696 15964 1 149.00000 418.400000
11653 1697 12276 1 149.00000 418.400000
11653 1698 11778 1 149.00000 418.400000
11653 1699 16647 1 149.00000 418.400000
11654 1700 15719 1 149.00000 418.400000
11654 1701 19573 1 149.00000 418.400000
11654 1702 13403 1 149.00000 418.400000
11654 1703 22369 1 149.00000 418.400000
11655 1704 14821 1 149.00000 418.400000
11655 1705 12816 1 149.00000 418.400000
11655 1706 16073 1 149.00000 418.400000
11655 1707 14376 1 149.00000 418.400000
11656 1708 12264 1 149.00000 418.400000
11656 1709 14834 1 149.00000 418.400000
11656 1710 14763 1 149.00000 418.400000
11657 1711 24142 1 149.00000 418.400000
14839 1712 24142 1 149.00000 418.400000
11657 1713 15430 1 149.00000 418.400000
11657 1714 14409 1 149.00000 418.400000
11658 1715 21517 1 149.00000 418.400000
11658 1716 13004 1 149.00000 418.400000
11658 1717 18865 1 149.00000 418.400000
12904 1718 19429 1 149.00000 418.400000
11659 1719 14422 1 149.00000 418.400000
12670 1720 15880 1 149.00000 418.400000
12670 1721 15796 1 149.00000 418.400000
11659 1722 12670 1 149.00000 418.400000
11660 1723 13175 1 149.00000 418.400000
11660 1724 15289 1 149.00000 418.400000
11660 1725 15297 1 149.00000 418.400000
11660 1726 16065 1 149.00000 418.400000
23656 1727 24238 1 149.00000 418.400000
11661 1728 15718 1 149.00000 418.400000
11661 1729 14037 1 149.00000 418.400000
11661 1730 11994 1 149.00000 418.400000
11662 1731 14778 1 149.00000 418.400000
11662 1732 15656 1 149.00000 418.400000
11662 1733 13078 1 149.00000 418.400000
11662 1734 12973 1 149.00000 418.400000
14567 1735 19681 1 149.00000 418.400000
19681 1736 23269 1 149.00000 418.400000
13785 1737 19681 1 149.00000 418.400000
11663 1738 15519 1 149.00000 418.400000
11663 1739 16244 1 149.00000 418.400000
14030 1740 15519 1 149.00000 418.400000
12232 1741 16244 1 149.00000 418.400000
17151 1742 18033 1 149.00000 418.400000
11664 1743 12120 1 149.00000 418.400000
11664 1744 12150 1 149.00000 418.400000
11664 1745 14430 1 149.00000 418.400000
11664 1746 15276 1 149.00000 418.400000
11665 1747 12772 1 149.00000 418.400000
11665 1748 15135 1 149.00000 418.400000
11409 1749 14756 1 149.00000 418.400000
15948 1750 16801 1 149.00000 418.400000
20341 1751 23659 1 149.00000 418.400000
13760 1752 23659 1 149.00000 418.400000
14009 1753 23659 1 149.00000 418.400000
11666 1754 15455 1 149.00000 418.400000
11666 1755 15034 1 149.00000 418.400000
11666 1756 23329 1 149.00000 418.400000
11666 1757 12939 1 149.00000 418.400000
15896 1758 21049 1 149.00000 418.400000
14009 1759 21049 1 149.00000 418.400000
21049 1760 23353 1 149.00000 418.400000
11667 1761 12808 1 149.00000 418.400000
11667 1762 15275 1 149.00000 418.400000
11667 1763 11938 1 149.00000 418.400000
11668 1764 12055 1 149.00000 418.400000
11668 1765 13544 1 149.00000 418.400000
11668 1766 12146 1 149.00000 418.400000
11668 1767 12212 1 149.00000 418.400000
11669 1768 13983 1 149.00000 418.400000
11669 1769 12637 1 149.00000 418.400000
11669 1770 12577 1 149.00000 418.400000
11669 1771 13873 1 149.00000 418.400000
11670 1772 18201 1 149.00000 418.400000
11670 1773 12256 1 149.00000 418.400000
11670 1774 18829 1 149.00000 418.400000
11670 1775 14134 1 149.00000 418.400000
16264 1776 23662 1 149.00000 418.400000
12522 1777 23662 1 149.00000 418.400000
11671 1778 14297 1 149.00000 418.400000
11671 1779 12683 1 149.00000 418.400000
11671 1780 15997 1 149.00000 418.400000
11672 1781 15622 1 149.00000 418.400000
11672 1782 12601 1 149.00000 418.400000
11672 1783 13635 1 149.00000 418.400000
11672 1784 15717 1 149.00000 418.400000
11673 1785 13791 1 149.00000 418.400000
11673 1786 14791 1 149.00000 418.400000
11673 1787 14636 1 149.00000 418.400000
11674 1788 14696 1 149.00000 418.400000
11674 1789 14264 1 149.00000 418.400000
11674 1790 14477 1 149.00000 418.400000
11674 1791 12682 1 149.00000 418.400000
11675 1792 12632 1 149.00000 418.400000
11675 1793 12725 1 149.00000 418.400000
11675 1794 13764 1 149.00000 418.400000
11676 1795 13365 1 149.00000 418.400000
11676 1796 14639 1 149.00000 418.400000
11676 1797 15916 1 149.00000 418.400000
11676 1798 13902 1 149.00000 418.400000
11677 1799 13825 1 149.00000 418.400000
11677 1800 13061 1 149.00000 418.400000
11677 1801 12436 1 149.00000 418.400000
11677 1802 12156 1 149.00000 418.400000
11678 1803 11931 1 149.00000 418.400000
11678 1804 14294 1 149.00000 418.400000
11678 1805 16269 1 149.00000 418.400000
11678 1806 14387 1 149.00000 418.400000
14765 1807 18215 1 149.00000 418.400000
13052 1808 18215 1 149.00000 418.400000
11679 1809 12291 1 149.00000 418.400000
11679 1810 11951 1 149.00000 418.400000
11679 1811 13244 1 149.00000 418.400000
11680 1812 13452 1 149.00000 418.400000
11680 1813 11741 1 149.00000 418.400000
11680 1814 13917 1 149.00000 418.400000
11681 1815 12467 1 149.00000 418.400000
11681 1816 12736 1 149.00000 418.400000
11681 1817 14005 1 149.00000 418.400000
11681 1818 16051 1 149.00000 418.400000
11682 1819 11912 1 149.00000 418.400000
11682 1820 12834 1 149.00000 418.400000
11682 1821 15229 1 149.00000 418.400000
11683 1822 13192 1 149.00000 418.400000
11683 1823 14514 1 149.00000 418.400000
11683 1824 16273 1 149.00000 418.400000
11684 1825 15086 1 149.00000 418.400000
11684 1826 15617 1 149.00000 418.400000
11684 1827 13757 1 149.00000 418.400000
11684 1828 15567 1 149.00000 418.400000
13173 1829 20269 1 149.00000 418.400000
20269 1830 20509 1 149.00000 418.400000
13723 1831 20269 1 149.00000 418.400000
11685 1832 13894 1 149.00000 418.400000
11685 1833 12379 1 149.00000 418.400000
11685 1834 15026 1 149.00000 418.400000
11685 1835 15245 1 149.00000 418.400000
11686 1836 13474 1 149.00000 418.400000
11686 1837 12733 1 149.00000 418.400000
11686 1838 15407 1 149.00000 418.400000
11687 1839 14200 1 149.00000 418.400000
11687 1840 13080 1 149.00000 418.400000
11687 1841 12253 1 149.00000 418.400000
11687 1842 14215 1 149.00000 418.400000
11688 1843 15942 1 149.00000 418.400000
11688 1844 15561 1 149.00000 418.400000
11688 1845 12160 1 149.00000 418.400000
11688 1846 15087 1 149.00000 418.400000
11689 1847 12433 1 149.00000 418.400000
11689 1848 12328 1 149.00000 418.400000
11689 1849 12537 1 149.00000 418.400000
11689 1850 13944 1 149.00000 418.400000
11690 1851 14210 1 149.00000 418.400000
11690 1852 12786 1 149.00000 418.400000
11690 1853 15783 1 149.00000 418.400000
11690 1854 11751 1 149.00000 418.400000
11691 1855 14610 1 149.00000 418.400000
11691 1856 15032 1 149.00000 418.400000
11691 1857 15331 1 149.00000 418.400000
18131 1858 21553 1 149.00000 418.400000
11692 1859 14955 1 149.00000 418.400000
11692 1860 15116 1 149.00000 418.400000
11692 1861 12376 1 149.00000 418.400000
11692 1862 12820 1 149.00000 418.400000
12698 1863 22789 1 149.00000 418.400000
16983 1864 22789 1 149.00000 418.400000
14672 1865 22789 1 149.00000 418.400000
16217 1866 22033 1 149.00000 418.400000
15254 1867 22033 1 149.00000 418.400000
11693 1868 13994 1 149.00000 418.400000
11693 1869 16214 1 149.00000 418.400000
11693 1870 15560 1 149.00000 418.400000
11693 1871 15771 1 149.00000 418.400000
11694 1872 13009 1 149.00000 418.400000
11694 1873 11728 1 149.00000 418.400000
11694 1874 13531 1 149.00000 418.400000
11694 1875 16002 1 149.00000 418.400000
15542 1876 22741 1 149.00000 418.400000
15316 1877 22741 1 149.00000 418.400000
16243 1878 22741 1 149.00000 418.400000
11695 1879 13945 1 149.00000 418.400000
11695 1880 15739 1 149.00000 418.400000
11695 1881 12835 1 149.00000 418.400000
11695 1882 12299 1 149.00000 418.400000
11696 1883 13839 1 149.00000 418.400000
11696 1884 12810 1 149.00000 418.400000
11696 1885 13870 1 149.00000 418.400000
11697 1886 12122 1 149.00000 418.400000
11697 1887 14372 1 149.00000 418.400000
11697 1888 13138 1 149.00000 418.400000
14191 1889 23665 1 149.00000 418.400000
16125 1890 23665 1 149.00000 418.400000
12919 1891 23665 1 149.00000 418.400000
11698 1892 13768 1 149.00000 418.400000
11698 1893 14658 1 149.00000 418.400000
13768 1894 15386 1 149.00000 418.400000
11698 1895 15402 1 149.00000 418.400000
21493 1896 23668 1 149.00000 418.400000
16147 1897 23668 1 149.00000 418.400000
11699 1898 11866 1 149.00000 418.400000
11699 1899 14328 1 149.00000 418.400000
11699 1900 14233 1 149.00000 418.400000
11699 1901 15930 1 149.00000 418.400000
14166 1902 16261 1 149.00000 418.400000
11700 1903 12743 1 149.00000 418.400000
15221 1904 15580 1 149.00000 418.400000
11700 1905 14166 1 149.00000 418.400000
11701 1906 15077 1 149.00000 418.400000
11701 1907 14276 1 149.00000 418.400000
11701 1908 15799 1 149.00000 418.400000
11701 1909 12014 1 149.00000 418.400000
11702 1910 12790 1 149.00000 418.400000
11702 1911 13859 1 149.00000 418.400000
13859 1912 14640 1 149.00000 418.400000
11702 1913 13520 1 149.00000 418.400000
11703 1914 15996 1 149.00000 418.400000
11703 1915 15824 1 149.00000 418.400000
11703 1916 12934 1 149.00000 418.400000
11703 1917 11998 1 149.00000 418.400000
11704 1918 14746 1 149.00000 418.400000
11704 1919 13273 1 149.00000 418.400000
11705 1920 16023 1 149.00000 418.400000
11705 1921 24133 1 149.00000 418.400000
11705 1922 19153 1 149.00000 418.400000
11705 1923 13206 1 149.00000 418.400000
15049 1924 15833 1 149.00000 418.400000
11706 1925 15049 1 149.00000 418.400000
11706 1926 22357 1 149.00000 418.400000
14491 1927 22357 1 149.00000 418.400000
12746 1928 16009 1 149.00000 418.400000
11707 1929 12230 1 149.00000 418.400000
11814 1930 15767 1 149.00000 418.400000
11707 1931 12746 1 149.00000 418.400000
11708 1932 15779 1 149.00000 418.400000
11708 1933 15815 1 149.00000 418.400000
11708 1934 14593 1 149.00000 418.400000
11708 1935 14702 1 149.00000 418.400000
11709 1936 13756 1 149.00000 418.400000
11709 1937 11948 1 149.00000 418.400000
11709 1938 13321 1 149.00000 418.400000
14017 1939 16619 1 149.00000 418.400000
11710 1940 11759 1 149.00000 418.400000
11710 1941 13282 1 149.00000 418.400000
11710 1942 15442 1 149.00000 418.400000
11711 1943 12522 1 149.00000 418.400000
11711 1944 17011 1 149.00000 418.400000
11711 1945 18781 1 149.00000 418.400000
11335 1946 12425 1 149.00000 418.400000
11712 1947 14884 1 149.00000 418.400000
11335 1948 13831 1 149.00000 418.400000
11713 1949 14848 1 149.00000 418.400000
11713 1950 12953 1 149.00000 418.400000
11713 1951 24196 1 149.00000 418.400000
11714 1952 13487 1 149.00000 418.400000
11714 1953 13871 1 149.00000 418.400000
11714 1954 13957 1 149.00000 418.400000
11714 1955 12834 1 149.00000 418.400000
11715 1956 12003 1 149.00000 418.400000
11715 1957 12235 1 149.00000 418.400000
11715 1958 19117 1 149.00000 418.400000
11715 1959 12817 1 149.00000 418.400000
11716 1960 16787 1 149.00000 418.400000
11716 1961 13641 1 149.00000 418.400000
11716 1962 13166 1 149.00000 418.400000
11716 1963 12627 1 149.00000 418.400000
11717 1964 11861 1 149.00000 418.400000
11717 1965 14220 1 149.00000 418.400000
11717 1966 16086 1 149.00000 418.400000
11717 1967 15738 1 149.00000 418.400000
11718 1968 16207 1 149.00000 418.400000
11718 1969 16381 1 149.00000 418.400000
11718 1970 24145 1 149.00000 418.400000
11719 1971 23197 1 149.00000 418.400000
11719 1972 21589 1 149.00000 418.400000
11719 1973 15443 1 149.00000 418.400000
13308 1974 15443 1 149.00000 418.400000
14430 1975 15582 1 149.00000 418.400000
11720 1976 14637 1 149.00000 418.400000
11720 1977 15582 1 149.00000 418.400000
11720 1978 12584 1 149.00000 418.400000
11721 1979 11746 1 149.00000 418.400000
11721 1980 21241 1 149.00000 418.400000
11721 1981 13129 1 149.00000 418.400000
11721 1982 15051 1 149.00000 418.400000
11722 1983 12768 1 149.00000 418.400000
11722 1984 20941 1 149.00000 418.400000
11722 1985 13752 1 149.00000 418.400000
11722 1986 17683 1 149.00000 418.400000
11723 1987 16983 1 149.00000 418.400000
11723 1988 11777 1 149.00000 418.400000
15617 1989 15646 1 149.00000 418.400000
11723 1990 15646 1 149.00000 418.400000
11724 1991 13697 1 149.00000 418.400000
11724 1992 15898 1 149.00000 418.400000
11724 1993 17333 1 149.00000 418.400000
11724 1994 11932 1 149.00000 418.400000
11725 1995 13524 1 149.00000 418.400000
11725 1996 12943 1 149.00000 418.400000
11725 1997 14198 1 149.00000 418.400000
11725 1998 15226 1 149.00000 418.400000
11726 1999 14484 1 149.00000 418.400000
11726 2000 12866 1 149.00000 418.400000
11726 2001 14145 1 149.00000 418.400000
11726 2002 14779 1 149.00000 418.400000
11727 2003 11961 1 149.00000 418.400000
11727 2004 13682 1 149.00000 418.400000
11727 2005 15324 1 149.00000 418.400000
11728 2006 15743 1 149.00000 418.400000
11728 2007 14562 1 149.00000 418.400000
11728 2008 14383 1 149.00000 418.400000
21253 2009 21649 1 149.00000 418.400000
11729 2010 14567 1 149.00000 418.400000
11729 2011 12754 1 149.00000 418.400000
11729 2012 12838 1 149.00000 418.400000
11729 2013 13035 1 149.00000 418.400000
11730 2014 16633 1 149.00000 418.400000
11730 2015 23899 1 149.00000 418.400000
11730 2016 15399 1 149.00000 418.400000
11730 2017 12953 1 149.00000 418.400000
13413 2018 16605 1 149.00000 418.400000
16605 2019 24079 1 149.00000 418.400000
11731 2020 14822 1 149.00000 418.400000
11731 2021 23788 1 149.00000 418.400000
11731 2022 12033 1 149.00000 418.400000
11732 2023 12599 1 149.00000 418.400000
11732 2024 14771 1 149.00000 418.400000
11732 2025 20845 1 149.00000 418.400000
11732 2026 16507 1 149.00000 418.400000
23671 2027 24337 1 149.00000 418.400000
15568 2028 23671 1 149.00000 418.400000
11733 2029 13154 1 149.00000 418.400000
11733 2030 14849 1 149.00000 418.400000
11733 2031 19705 1 149.00000 418.400000
11733 2032 12268 1 149.00000 418.400000
11734 2033 13677 1 149.00000 418.400000
11734 2034 16073 1 149.00000 418.400000
11734 2035 15113 1 149.00000 418.400000
11734 2036 16007 1 149.00000 418.400000
11735 2037 14604 1 149.00000 418.400000
11735 2038 14744 1 149.00000 418.400000
11735 2039 14658 1 149.00000 418.400000
11735 2040 11946 1 149.00000 418.400000
16115 2041 18325 1 149.00000 418.400000
18325 2042 24202 1 149.00000 418.400000
18709 2043 22165 1 149.00000 418.400000
14924 2044 18709 1 149.00000 418.400000
18709 2045 20125 1 149.00000 418.400000
16871 2046 23674 1 149.00000 418.400000
14524 2047 23674 1 149.00000 418.400000
14964 2048 23674 1 149.00000 418.400000
11736 2049 12887 1 149.00000 418.400000
11736 2050 15080 1 149.00000 418.400000
11736 2051 13246 1 149.00000 418.400000
11736 2052 12955 1 149.00000 418.400000
11737 2053 11742 1 149.00000 418.400000
11737 2054 12913 1 149.00000 418.400000
11738 2055 12000 1 149.00000 418.400000
11738 2056 15681 1 149.00000 418.400000
11738 2057 15819 1 149.00000 418.400000
11738 2058 11924 1 149.00000 418.400000
11739 2059 13069 1 149.00000 418.400000
11739 2060 12002 1 149.00000 418.400000
11739 2061 13930 1 149.00000 418.400000
11740 2062 15611 1 149.00000 418.400000
11740 2063 14800 1 149.00000 418.400000
11740 2064 12170 1 149.00000 418.400000
11740 2065 15344 1 149.00000 418.400000
17683 2066 23521 1 149.00000 418.400000
11741 2067 13307 1 149.00000 418.400000
11741 2068 15033 1 149.00000 418.400000
11741 2069 12761 1 149.00000 418.400000
11742 2070 11795 1 149.00000 418.400000
11742 2071 14160 1 149.00000 418.400000
11743 2072 13642 1 149.00000 418.400000
11743 2073 14692 1 149.00000 418.400000
11436 2074 15513 1 149.00000 418.400000
11744 2075 12251 1 149.00000 418.400000
11744 2076 14120 1 149.00000 418.400000
11744 2077 14890 1 149.00000 418.400000
11744 2078 16178 1 149.00000 418.400000
11745 2079 13876 1 149.00000 418.400000
11745 2080 14567 1 149.00000 418.400000
11745 2081 12697 1 149.00000 418.400000
11746 2082 12158 1 149.00000 418.400000
11746 2083 15865 1 149.00000 418.400000
11747 2084 14171 1 149.00000 418.400000
11747 2085 14513 1 149.00000 418.400000
11747 2086 15770 1 149.00000 418.400000
11747 2087 12642 1 149.00000 418.400000
11748 2088 12159 1 149.00000 418.400000
11748 2089 13419 1 149.00000 418.400000
11748 2090 12872 1 149.00000 418.400000
11748 2091 13632 1 149.00000 418.400000
11749 2092 15510 1 149.00000 418.400000
11749 2093 13434 1 149.00000 418.400000
11749 2094 14536 1 149.00000 418.400000
11749 2095 23758 1 149.00000 418.400000
14188 2096 18421 1 149.00000 418.400000
18421 2097 23761 1 149.00000 418.400000
11750 2098 16087 1 149.00000 418.400000
16087 2099 24097 1 149.00000 418.400000
11750 2100 17487 1 149.00000 418.400000
11751 2101 11771 1 149.00000 418.400000
11751 2102 15535 1 149.00000 418.400000
11751 2103 15534 1 149.00000 418.400000
11752 2104 15973 1 149.00000 418.400000
11752 2105 13206 1 149.00000 418.400000
11752 2106 15777 1 149.00000 418.400000
20797 2107 23677 1 149.00000 418.400000
16105 2108 23677 1 149.00000 418.400000
11753 2109 12574 1 149.00000 418.400000
11753 2110 15527 1 149.00000 418.400000
11753 2111 14320 1 149.00000 418.400000
11753 2112 24082 1 149.00000 418.400000
11754 2113 15694 1 149.00000 418.400000
11754 2114 12762 1 149.00000 418.400000
11754 2115 13245 1 149.00000 418.400000
11754 2116 14951 1 149.00000 418.400000
11983 2117 13574 1 149.00000 418.400000
11755 2118 13574 1 149.00000 418.400000
11755 2119 15680 1 149.00000 418.400000
11755 2120 13786 1 149.00000 418.400000
11756 2121 13722 1 149.00000 418.400000
11756 2122 13204 1 149.00000 418.400000
11756 2123 12541 1 149.00000 418.400000
11756 2124 16139 1 149.00000 418.400000
11757 2125 16181 1 149.00000 418.400000
11757 2126 12947 1 149.00000 418.400000
11758 2127 12129 1 149.00000 418.400000
11758 2128 12414 1 149.00000 418.400000
11758 2129 15805 1 149.00000 418.400000
11758 2130 15201 1 149.00000 418.400000
11759 2131 14580 1 149.00000 418.400000
11759 2132 14058 1 149.00000 418.400000
11760 2133 11813 1 149.00000 418.400000
11760 2134 13100 1 149.00000 418.400000
11760 2135 14958 1 149.00000 418.400000
11760 2136 13425 1 149.00000 418.400000
11761 2137 13885 1 149.00000 418.400000
11761 2138 15308 1 149.00000 418.400000
11761 2139 22441 1 149.00000 418.400000
11762 2140 13604 1 149.00000 418.400000
11762 2141 12862 1 149.00000 418.400000
11762 2142 12558 1 149.00000 418.400000
11762 2143 14854 1 149.00000 418.400000
11763 2144 15964 1 149.00000 418.400000
11763 2145 12857 1 149.00000 418.400000
11763 2146 13291 1 149.00000 418.400000
11763 2147 12884 1 149.00000 418.400000
17417 2148 18159 1 149.00000 418.400000
11764 2149 13221 1 149.00000 418.400000
11764 2150 19285 1 149.00000 418.400000
11764 2151 14705 1 149.00000 418.400000
11765 2152 15501 1 149.00000 418.400000
11765 2153 15756 1 149.00000 418.400000
11765 2154 14855 1 149.00000 418.400000
11765 2155 15985 1 149.00000 418.400000
11766 2156 15566 1 149.00000 418.400000
11766 2157 15974 1 149.00000 418.400000
11766 2158 13562 1 149.00000 418.400000
14150 2159 23680 1 149.00000 418.400000
12396 2160 23680 1 149.00000 418.400000
12559 2161 21217 1 149.00000 418.400000
16158 2162 21217 1 149.00000 418.400000
14133 2163 22657 1 149.00000 418.400000
21217 2164 22657 1 149.00000 418.400000
14017 2165 23683 1 149.00000 418.400000
13686 2166 23683 1 149.00000 418.400000
11767 2167 15057 1 149.00000 418.400000
11767 2168 14178 1 149.00000 418.400000
11767 2169 15110 1 149.00000 418.400000
11767 2170 14313 1 149.00000 418.400000
11768 2171 13124 1 149.00000 418.400000
11768 2172 14401 1 149.00000 418.400000
11768 2173 16117 1 149.00000 418.400000
11768 2174 15141 1 149.00000 418.400000
11769 2175 12569 1 149.00000 418.400000
16100 2176 17221 1 149.00000 418.400000
11769 2177 23959 1 149.00000 418.400000
11769 2178 16100 1 149.00000 418.400000
11770 2179 15028 1 149.00000 418.400000
11770 2180 14137 1 149.00000 418.400000
11771 2181 15468 1 149.00000 418.400000
11771 2182 13790 1 149.00000 418.400000
11771 2183 13626 1 149.00000 418.400000
11772 2184 12382 1 149.00000 418.400000
11772 2185 14383 1 149.00000 418.400000
11772 2186 16219 1 149.00000 418.400000
11772 2187 13943 1 149.00000 418.400000
11773 2188 12591 1 149.00000 418.400000
11773 2189 15828 1 149.00000 418.400000
11773 2190 12183 1 149.00000 418.400000
11773 2191 13612 1 149.00000 418.400000
11774 2192 16212 1 149.00000 418.400000
11774 2193 16008 1 149.00000 418.400000
15097 2194 16029 1 149.00000 418.400000
11774 2195 16029 1 149.00000 418.400000
11775 2196 15493 1 149.00000 418.400000
11775 2197 15295 1 149.00000 418.400000
11775 2198 15723 1 149.00000 418.400000
11775 2199 14860 1 149.00000 418.400000
14985 2200 24317 1 149.00000 418.400000
14662 2201 24317 1 149.00000 418.400000
11776 2202 12537 1 149.00000 418.400000
11776 2203 12514 1 149.00000 418.400000
11776 2204 15756 1 149.00000 418.400000
11776 2205 13577 1 149.00000 418.400000
11777 2206 15624 1 149.00000 418.400000
11777 2207 12844 1 149.00000 418.400000
11777 2208 11784 1 149.00000 418.400000
11778 2209 14853 1 149.00000 418.400000
11778 2210 12731 1 149.00000 418.400000
11778 2211 12677 1 149.00000 418.400000
11779 2212 12876 1 149.00000 418.400000
11779 2213 15020 1 149.00000 418.400000
11779 2214 12401 1 149.00000 418.400000
11779 2215 16205 1 149.00000 418.400000
11780 2216 12155 1 149.00000 418.400000
11780 2217 20365 1 149.00000 418.400000
11781 2218 15017 1 149.00000 418.400000
11781 2219 12419 1 149.00000 418.400000
11781 2220 15243 1 149.00000 418.400000
11781 2221 15469 1 149.00000 418.400000
11782 2222 12965 1 149.00000 418.400000
11782 2223 14929 1 149.00000 418.400000
11782 2224 13526 1 149.00000 418.400000
11782 2225 14271 1 149.00000 418.400000
11783 2226 13169 1 149.00000 418.400000
11783 2227 15382 1 149.00000 418.400000
11783 2228 15169 1 149.00000 418.400000
11783 2229 13159 1 149.00000 418.400000
11784 2230 14771 1 149.00000 418.400000
11784 2231 15567 1 149.00000 418.400000
11784 2232 12698 1 149.00000 418.400000
12277 2233 17445 1 149.00000 418.400000
17445 2234 20893 1 149.00000 418.400000
11785 2235 13636 1 149.00000 418.400000
11785 2236 12684 1 149.00000 418.400000
11785 2237 14535 1 149.00000 418.400000
11785 2238 13157 1 149.00000 418.400000
11786 2239 14719 1 149.00000 418.400000
11786 2240 23908 1 149.00000 418.400000
11786 2241 12304 1 149.00000 418.400000
11787 2242 15740 1 149.00000 418.400000
11787 2243 13500 1 149.00000 418.400000
11787 2244 12696 1 149.00000 418.400000
11787 2245 15546 1 149.00000 418.400000
11788 2246 18243 1 149.00000 418.400000
11788 2247 16193 1 149.00000 418.400000
11788 2248 12887 1 149.00000 418.400000
11788 2249 14691 1 149.00000 418.400000
11789 2250 14295 1 149.00000 418.400000
11789 2251 12763 1 149.00000 418.400000
11789 2252 15261 1 149.00000 418.400000
11790 2253 24067 1 149.00000 418.400000
11790 2254 13317 1 149.00000 418.400000
11790 2255 13386 1 149.00000 418.400000
11790 2256 13714 1 149.00000 418.400000
11791 2257 12704 1 149.00000 418.400000
11791 2258 14334 1 149.00000 418.400000
11791 2259 15722 1 149.00000 418.400000
11791 2260 13214 1 149.00000 418.400000
11792 2261 14481 1 149.00000 418.400000
11792 2262 15798 1 149.00000 418.400000
11792 2263 12823 1 149.00000 418.400000
11792 2264 14723 1 149.00000 418.400000
11793 2265 14370 1 149.00000 418.400000
11793 2266 13010 1 149.00000 418.400000
11793 2267 13498 1 149.00000 418.400000
11793 2268 12189 1 149.00000 418.400000
11967 2269 16150 1 149.00000 418.400000
11794 2270 16150 1 149.00000 418.400000
11794 2271 16013 1 149.00000 418.400000
11794 2272 12008 1 149.00000 418.400000
11795 2273 12451 1 149.00000 418.400000
11795 2274 14634 1 149.00000 418.400000
11795 2275 14885 1 149.00000 418.400000
11796 2276 14085 1 149.00000 418.400000
11796 2277 12716 1 149.00000 418.400000
11796 2278 13160 1 149.00000 418.400000
11796 2279 15943 1 149.00000 418.400000
11797 2280 15014 1 149.00000 418.400000
11797 2281 13561 1 149.00000 418.400000
11797 2282 15156 1 149.00000 418.400000
11797 2283 15309 1 149.00000 418.400000
11798 2284 13280 1 149.00000 418.400000
11798 2285 13293 1 149.00000 418.400000
11798 2286 12083 1 149.00000 418.400000
11798 2287 14633 1 149.00000 418.400000
11799 2288 14077 1 149.00000 418.400000
11799 2289 12408 1 149.00000 418.400000
11799 2290 14569 1 149.00000 418.400000
11800 2291 16141 1 149.00000 418.400000
11800 2292 14275 1 149.00000 418.400000
11800 2293 14381 1 149.00000 418.400000
11800 2294 12018 1 149.00000 418.400000
15083 2295 22585 1 149.00000 418.400000
12524 2296 21193 1 149.00000 418.400000
21193 2297 23803 1 149.00000 418.400000
17613 2298 21193 1 149.00000 418.400000
13554 2299 16675 1 149.00000 418.400000
11801 2300 15949 1 149.00000 418.400000
11801 2301 14687 1 149.00000 418.400000
11801 2302 12001 1 149.00000 418.400000
11801 2303 13638 1 149.00000 418.400000
13529 2304 19189 1 149.00000 418.400000
11802 2305 15857 1 149.00000 418.400000
11802 2306 13846 1 149.00000 418.400000
11802 2307 12920 1 149.00000 418.400000
11802 2308 15493 1 149.00000 418.400000
11803 2309 12300 1 149.00000 418.400000
11803 2310 15244 1 149.00000 418.400000
11803 2311 14885 1 149.00000 418.400000
11803 2312 15334 1 149.00000 418.400000
11804 2313 24280 1 149.00000 418.400000
11804 2314 13170 1 149.00000 418.400000
11804 2315 13508 1 149.00000 418.400000
11804 2316 14934 1 149.00000 418.400000
11805 2317 15877 1 149.00000 418.400000
11805 2318 15901 1 149.00000 418.400000
11805 2319 13194 1 149.00000 418.400000
11805 2320 12497 1 149.00000 418.400000
11806 2321 13934 1 149.00000 418.400000
11806 2322 14508 1 149.00000 418.400000
11806 2323 15027 1 149.00000 418.400000
17403 2324 23794 1 149.00000 418.400000
14644 2325 17403 1 149.00000 418.400000
11807 2326 13243 1 149.00000 418.400000
11807 2327 19513 1 149.00000 418.400000
11807 2328 11856 1 149.00000 418.400000
11807 2329 13695 1 149.00000 418.400000
11808 2330 14333 1 149.00000 418.400000
11808 2331 16135 1 149.00000 418.400000
13552 2332 14333 1 149.00000 418.400000
11809 2333 12211 1 149.00000 418.400000
11809 2334 12053 1 149.00000 418.400000
11809 2335 14086 1 149.00000 418.400000
11809 2336 14500 1 149.00000 418.400000
14677 2337 15093 1 149.00000 418.400000
11637 2338 11810 1 149.00000 418.400000
15093 2339 15865 1 149.00000 418.400000
11810 2340 15093 1 149.00000 418.400000
11811 2341 14857 1 149.00000 418.400000
12277 2342 14335 1 149.00000 418.400000
11811 2343 14335 1 149.00000 418.400000
11812 2344 12400 1 149.00000 418.400000
11812 2345 13037 1 149.00000 418.400000
11812 2346 15814 1 149.00000 418.400000
11812 2347 14858 1 149.00000 418.400000
11813 2348 13225 1 149.00000 418.400000
11813 2349 15659 1 149.00000 418.400000
11814 2350 12746 1 149.00000 418.400000
11814 2351 14074 1 149.00000 418.400000
12746 2352 15175 1 149.00000 418.400000
11814 2353 15075 1 149.00000 418.400000
11815 2354 15729 1 149.00000 418.400000
11815 2355 15892 1 149.00000 418.400000
11815 2356 12679 1 149.00000 418.400000
11815 2357 13447 1 149.00000 418.400000
11816 2358 12881 1 149.00000 418.400000
11816 2359 13855 1 149.00000 418.400000
11816 2360 14007 1 149.00000 418.400000
11816 2361 14446 1 149.00000 418.400000
11817 2362 13170 1 149.00000 418.400000
11817 2363 14488 1 149.00000 418.400000
11817 2364 14540 1 149.00000 418.400000
11817 2365 12102 1 149.00000 418.400000
11818 2366 13324 1 149.00000 418.400000
11818 2367 14999 1 149.00000 418.400000
11818 2368 13420 1 149.00000 418.400000
11818 2369 13170 1 149.00000 418.400000
11819 2370 14604 1 149.00000 418.400000
11819 2371 14220 1 149.00000 418.400000
11819 2372 13049 1 149.00000 418.400000
11819 2373 15538 1 149.00000 418.400000
11820 2374 14570 1 149.00000 418.400000
11820 2375 12375 1 149.00000 418.400000
11820 2376 14573 1 149.00000 418.400000
11820 2377 13526 1 149.00000 418.400000
11821 2378 11825 1 149.00000 418.400000
11821 2379 14030 1 149.00000 418.400000
11821 2380 13033 1 149.00000 418.400000
11821 2381 13083 1 149.00000 418.400000
11822 2382 14458 1 149.00000 418.400000
11822 2383 14080 1 149.00000 418.400000
11822 2384 15972 1 149.00000 418.400000
11822 2385 12828 1 149.00000 418.400000
11823 2386 14660 1 149.00000 418.400000
11823 2387 13884 1 149.00000 418.400000
11823 2388 12661 1 149.00000 418.400000
11823 2389 16253 1 149.00000 418.400000
11824 2390 15386 1 149.00000 418.400000
11824 2391 13929 1 149.00000 418.400000
11824 2392 14873 1 149.00000 418.400000
11824 2393 14604 1 149.00000 418.400000
11825 2394 12856 1 149.00000 418.400000
11825 2395 16121 1 149.00000 418.400000
11825 2396 12020 1 149.00000 418.400000
15578 2397 16121 1 149.00000 418.400000
11826 2398 15648 1 149.00000 418.400000
11826 2399 14933 1 149.00000 418.400000
11826 2400 11864 1 149.00000 418.400000
13815 2401 15648 1 149.00000 418.400000
11827 2402 15734 1 149.00000 418.400000
11827 2403 14562 1 149.00000 418.400000
11827 2404 12022 1 149.00000 418.400000
11827 2405 12531 1 149.00000 418.400000
11828 2406 16103 1 149.00000 418.400000
11828 2407 15498 1 149.00000 418.400000
11828 2408 13084 1 149.00000 418.400000
11828 2409 15712 1 149.00000 418.400000
11829 2410 13232 1 149.00000 418.400000
11829 2411 15534 1 149.00000 418.400000
11829 2412 13678 1 149.00000 418.400000
11830 2413 16201 1 149.00000 418.400000
11830 2414 15000 1 149.00000 418.400000
11830 2415 14861 1 149.00000 418.400000
11830 2416 14594 1 149.00000 418.400000
11831 2417 12757 1 149.00000 418.400000
11831 2418 15165 1 149.00000 418.400000
11831 2419 22621 1 149.00000 418.400000
11831 2420 12833 1 149.00000 418.400000
11832 2421 17431 1 149.00000 418.400000
11832 2422 13726 1 149.00000 418.400000
11832 2423 13877 1 149.00000 418.400000
11832 2424 15273 1 149.00000 418.400000
11833 2425 14327 1 149.00000 418.400000
11833 2426 12505 1 149.00000 418.400000
11833 2427 15341 1 149.00000 418.400000
11833 2428 11898 1 149.00000 418.400000
19561 2429 23686 1 149.00000 418.400000
15758 2430 23686 1 149.00000 418.400000
22681 2431 23689 1 149.00000 418.400000
11334 2432 23929 1 149.00000 418.400000
23689 2433 23929 1 149.00000 418.400000
11834 2434 14291 1 149.00000 418.400000
11834 2435 15974 1 149.00000 418.400000
11834 2436 12147 1 149.00000 418.400000
11834 2437 15908 1 149.00000 418.400000
11835 2438 14062 1 149.00000 418.400000
11835 2439 14947 1 149.00000 418.400000
11835 2440 14630 1 149.00000 418.400000
11835 2441 13663 1 149.00000 418.400000
11299 2442 11836 1 149.00000 418.400000
11836 2443 18145 1 149.00000 418.400000
11836 2444 13028 1 149.00000 418.400000
11836 2445 23974 1 149.00000 418.400000
11837 2446 12133 1 149.00000 418.400000
11837 2447 12494 1 149.00000 418.400000
11837 2448 14256 1 149.00000 418.400000
11837 2449 13615 1 149.00000 418.400000
14411 2450 23692 1 149.00000 418.400000
21709 2451 23692 1 149.00000 418.400000
23692 2452 24268 1 149.00000 418.400000
11838 2453 12296 1 149.00000 418.400000
11838 2454 12420 1 149.00000 418.400000
11838 2455 19009 1 149.00000 418.400000
15847 2456 24322 1 149.00000 418.400000
15907 2457 24322 1 149.00000 418.400000
11839 2458 14444 1 149.00000 418.400000
11839 2459 14989 1 149.00000 418.400000
11839 2460 12100 1 149.00000 418.400000
11839 2461 15963 1 149.00000 418.400000
15962 2462 24327 1 149.00000 418.400000
12307 2463 24327 1 149.00000 418.400000
11840 2464 13308 1 149.00000 418.400000
11840 2465 13624 1 149.00000 418.400000
11840 2466 16119 1 149.00000 418.400000
11840 2467 13400 1 149.00000 418.400000
11841 2468 11855 1 149.00000 418.400000
11841 2469 24049 1 149.00000 418.400000
11841 2470 13180 1 149.00000 418.400000
11841 2471 14691 1 149.00000 418.400000
11842 2472 14966 1 149.00000 418.400000
11842 2473 14199 1 149.00000 418.400000
11842 2474 14890 1 149.00000 418.400000
11842 2475 12703 1 149.00000 418.400000
11843 2476 15349 1 149.00000 418.400000
11843 2477 16129 1 149.00000 418.400000
11843 2478 15133 1 149.00000 418.400000
12198 2479 16129 1 149.00000 418.400000
11844 2480 12781 1 149.00000 418.400000
11844 2481 15924 1 149.00000 418.400000
11844 2482 12472 1 149.00000 418.400000
12383 2483 22597 1 149.00000 418.400000
13654 2484 22597 1 149.00000 418.400000
14360 2485 22597 1 149.00000 418.400000
11845 2486 15256 1 149.00000 418.400000
11845 2487 12386 1 149.00000 418.400000
11845 2488 11977 1 149.00000 418.400000
11845 2489 14123 1 149.00000 418.400000
23767 2490 24208 1 149.00000 418.400000
14769 2491 15469 1 149.00000 418.400000
14769 2492 23767 1 149.00000 418.400000
22945 2493 23695 1 149.00000 418.400000
23569 2494 23695 1 149.00000 418.400000
13053 2495 23695 1 149.00000 418.400000
11846 2496 11878 1 149.00000 418.400000
11846 2497 12455 1 149.00000 418.400000
11846 2498 17641 1 149.00000 418.400000
11846 2499 14579 1 149.00000 418.400000
17739 2500 20005 1 149.00000 418.400000
13392 2501 17739 1 149.00000 418.400000
11847 2502 14635 1 149.00000 418.400000
11847 2503 14182 1 149.00000 418.400000
11847 2504 11981 1 149.00000 418.400000
14128 2505 20821 1 149.00000 418.400000
20821 2506 23716 1 149.00000 418.400000
14128 2507 15480 1 149.00000 418.400000
11848 2508 14284 1 149.00000 418.400000
11848 2509 15340 1 149.00000 418.400000
11848 2510 13174 1 149.00000 418.400000
11848 2511 16046 1 149.00000 418.400000
11849 2512 13836 1 149.00000 418.400000
11849 2513 12092 1 149.00000 418.400000
11849 2514 12646 1 149.00000 418.400000
11849 2515 13026 1 149.00000 418.400000
11850 2516 15422 1 149.00000 418.400000
11850 2517 24362 1 149.00000 418.400000
11850 2518 15730 1 149.00000 418.400000
11850 2519 15636 1 149.00000 418.400000
11851 2520 16048 1 149.00000 418.400000
11851 2521 13754 1 149.00000 418.400000
11851 2522 15883 1 149.00000 418.400000
11851 2523 15553 1 149.00000 418.400000
11852 2524 12180 1 149.00000 418.400000
11852 2525 14115 1 149.00000 418.400000
11852 2526 12239 1 149.00000 418.400000
11852 2527 12668 1 149.00000 418.400000
11853 2528 14896 1 149.00000 418.400000
11853 2529 12365 1 149.00000 418.400000
11853 2530 13843 1 149.00000 418.400000
11853 2531 12258 1 149.00000 418.400000
11854 2532 14854 1 149.00000 418.400000
11854 2533 14249 1 149.00000 418.400000
11854 2534 14000 1 149.00000 418.400000
11854 2535 14842 1 149.00000 418.400000
11855 2536 15717 1 149.00000 418.400000
11855 2537 15383 1 149.00000 418.400000
11855 2538 16085 1 149.00000 418.400000
11856 2539 15801 1 149.00000 418.400000
11856 2540 18285 1 149.00000 418.400000
11856 2541 13378 1 149.00000 418.400000
11857 2542 12429 1 149.00000 418.400000
11857 2543 15023 1 149.00000 418.400000
11857 2544 15098 1 149.00000 418.400000
11858 2545 14145 1 149.00000 418.400000
11858 2546 15560 1 149.00000 418.400000
11858 2547 13366 1 149.00000 418.400000
11858 2548 15440 1 149.00000 418.400000
11859 2549 14542 1 149.00000 418.400000
11859 2550 11942 1 149.00000 418.400000
11859 2551 13213 1 149.00000 418.400000
11859 2552 14775 1 149.00000 418.400000
11860 2553 13098 1 149.00000 418.400000
11860 2554 13146 1 149.00000 418.400000
11860 2555 14712 1 149.00000 418.400000
11860 2556 16189 1 149.00000 418.400000
16034 2557 23413 1 149.00000 418.400000
15358 2558 22285 1 149.00000 418.400000
22285 2559 23545 1 149.00000 418.400000
22285 2560 23413 1 149.00000 418.400000
11861 2561 12440 1 149.00000 418.400000
11861 2562 13369 1 149.00000 418.400000
11861 2563 13049 1 149.00000 418.400000
11862 2564 15864 1 149.00000 418.400000
11862 2565 12465 1 149.00000 418.400000
11862 2566 14640 1 149.00000 418.400000
11863 2567 13305 1 149.00000 418.400000
11863 2568 22117 1 149.00000 418.400000
11863 2569 24184 1 149.00000 418.400000
11863 2570 14318 1 149.00000 418.400000
11864 2571 15342 1 149.00000 418.400000
11864 2572 12179 1 149.00000 418.400000
12179 2573 14793 1 149.00000 418.400000
11431 2574 11865 1 149.00000 418.400000
11865 2575 13133 1 149.00000 418.400000
11865 2576 13538 1 149.00000 418.400000
11865 2577 12707 1 149.00000 418.400000
11866 2578 14913 1 149.00000 418.400000
11866 2579 14024 1 149.00000 418.400000
11866 2580 13395 1 149.00000 418.400000
13620 2581 23698 1 149.00000 418.400000
14784 2582 23698 1 149.00000 418.400000
11896 2583 14983 1 149.00000 418.400000
11867 2584 23173 1 149.00000 418.400000
11867 2585 14983 1 149.00000 418.400000
11867 2586 12835 1 149.00000 418.400000
17347 2587 21145 1 149.00000 418.400000
15182 2588 17347 1 149.00000 418.400000
13363 2589 23701 1 149.00000 418.400000
12306 2590 23701 1 149.00000 418.400000
17431 2591 23701 1 149.00000 418.400000
11868 2592 12593 1 149.00000 418.400000
11868 2593 14208 1 149.00000 418.400000
11868 2594 12457 1 149.00000 418.400000
11869 2595 16158 1 149.00000 418.400000
11869 2596 14494 1 149.00000 418.400000
11869 2597 11987 1 149.00000 418.400000
11870 2598 16170 1 149.00000 418.400000
11870 2599 15736 1 149.00000 418.400000
11870 2600 13133 1 149.00000 418.400000
11870 2601 12550 1 149.00000 418.400000
15659 2602 23704 1 149.00000 418.400000
14513 2603 23704 1 149.00000 418.400000
11871 2604 18985 1 149.00000 418.400000
17459 2605 18985 1 149.00000 418.400000
11872 2606 16217 1 149.00000 418.400000
14521 2607 16217 1 149.00000 418.400000
11872 2608 16137 1 149.00000 418.400000
11872 2609 15406 1 149.00000 418.400000
11873 2610 15935 1 149.00000 418.400000
11873 2611 12797 1 149.00000 418.400000
11873 2612 13612 1 149.00000 418.400000
11874 2613 12447 1 149.00000 418.400000
11874 2614 12410 1 149.00000 418.400000
11874 2615 12971 1 149.00000 418.400000
11875 2616 12931 1 149.00000 418.400000
11875 2617 13185 1 149.00000 418.400000
11875 2618 14238 1 149.00000 418.400000
11876 2619 16093 1 149.00000 418.400000
11876 2620 19633 1 149.00000 418.400000
11876 2621 15781 1 149.00000 418.400000
11876 2622 13913 1 149.00000 418.400000
11958 2623 23707 1 149.00000 418.400000
23707 2624 24457 1 149.00000 418.400000
12684 2625 13101 1 149.00000 418.400000
11877 2626 14933 1 149.00000 418.400000
11877 2627 13101 1 149.00000 418.400000
11877 2628 13067 1 149.00000 418.400000
11878 2629 15605 1 149.00000 418.400000
11878 2630 14908 1 149.00000 418.400000
11878 2631 12866 1 149.00000 418.400000
11879 2632 15650 1 149.00000 418.400000
11879 2633 23803 1 149.00000 418.400000
11879 2634 16131 1 149.00000 418.400000
11879 2635 15412 1 149.00000 418.400000
11880 2636 15479 1 149.00000 418.400000
11880 2637 13171 1 149.00000 418.400000
11880 2638 15023 1 149.00000 418.400000
11880 2639 15668 1 149.00000 418.400000
11881 2640 13123 1 149.00000 418.400000
11881 2641 15470 1 149.00000 418.400000
11881 2642 13549 1 149.00000 418.400000
11881 2643 13085 1 149.00000 418.400000
11882 2644 16265 1 149.00000 418.400000
11882 2645 13163 1 149.00000 418.400000
11882 2646 12474 1 149.00000 418.400000
11883 2647 13202 1 149.00000 418.400000
11883 2648 16075 1 149.00000 418.400000
15436 2649 16075 1 149.00000 418.400000
11883 2650 14033 1 149.00000 418.400000
20437 2651 23923 1 149.00000 418.400000
20437 2652 24304 1 149.00000 418.400000
16212 2653 20437 1 149.00000 418.400000
11884 2654 13322 1 149.00000 418.400000
11884 2655 13919 1 149.00000 418.400000
11884 2656 14562 1 149.00000 418.400000
11884 2657 16166 1 149.00000 418.400000
11885 2658 14620 1 149.00000 418.400000
11885 2659 12011 1 149.00000 418.400000
11886 2660 13189 1 149.00000 418.400000
11886 2661 13159 1 149.00000 418.400000
11886 2662 13451 1 149.00000 418.400000
11886 2663 16260 1 149.00000 418.400000
11887 2664 14218 1 149.00000 418.400000
11887 2665 13637 1 149.00000 418.400000
11888 2666 14044 1 149.00000 418.400000
11888 2667 24109 1 149.00000 418.400000
11889 2668 14284 1 149.00000 418.400000
11889 2669 14198 1 149.00000 418.400000
11889 2670 12676 1 149.00000 418.400000
11889 2671 12095 1 149.00000 418.400000
11890 2672 13018 1 149.00000 418.400000
11890 2673 13187 1 149.00000 418.400000
11890 2674 13927 1 149.00000 418.400000
11890 2675 11999 1 149.00000 418.400000
11891 2676 12506 1 149.00000 418.400000
11891 2677 14803 1 149.00000 418.400000
11891 2678 15952 1 149.00000 418.400000
11891 2679 13713 1 149.00000 418.400000
11892 2680 13204 1 149.00000 418.400000
11892 2681 13286 1 149.00000 418.400000
11892 2682 15467 1 149.00000 418.400000
14424 2683 15467 1 149.00000 418.400000
11893 2684 21061 1 149.00000 418.400000
11893 2685 12449 1 149.00000 418.400000
11893 2686 13011 1 149.00000 418.400000
11893 2687 15841 1 149.00000 418.400000
11894 2688 15434 1 149.00000 418.400000
11894 2689 15466 1 149.00000 418.400000
11894 2690 23923 1 149.00000 418.400000
11894 2691 13664 1 149.00000 418.400000
11895 2692 15053 1 149.00000 418.400000
11895 2693 14003 1 149.00000 418.400000
11895 2694 15995 1 149.00000 418.400000
11895 2695 12658 1 149.00000 418.400000
13041 2696 23710 1 149.00000 418.400000
12170 2697 23710 1 149.00000 418.400000
14665 2698 23710 1 149.00000 418.400000
11896 2699 20965 1 149.00000 418.400000
11896 2700 21397 1 149.00000 418.400000
11896 2701 13343 1 149.00000 418.400000
11897 2702 15433 1 149.00000 418.400000
11897 2703 14072 1 149.00000 418.400000
11897 2704 13324 1 149.00000 418.400000
11897 2705 14025 1 149.00000 418.400000
11898 2706 13044 1 149.00000 418.400000
11898 2707 12049 1 149.00000 418.400000
11898 2708 15907 1 149.00000 418.400000
11899 2709 13020 1 149.00000 418.400000
11899 2710 16024 1 149.00000 418.400000
11899 2711 16054 1 149.00000 418.400000
11899 2712 12906 1 149.00000 418.400000
11900 2713 13581 1 149.00000 418.400000
11900 2714 13345 1 149.00000 418.400000
11900 2715 12274 1 149.00000 418.400000
11900 2716 23833 1 149.00000 418.400000
11901 2717 16165 1 149.00000 418.400000
11901 2718 14401 1 149.00000 418.400000
11901 2719 12955 1 149.00000 418.400000
11901 2720 14669 1 149.00000 418.400000
11902 2721 16271 1 149.00000 418.400000
11902 2722 14270 1 149.00000 418.400000
11902 2723 12202 1 149.00000 418.400000
11902 2724 15793 1 149.00000 418.400000
11903 2725 16198 1 149.00000 418.400000
11903 2726 13435 1 149.00000 418.400000
11903 2727 15020 1 149.00000 418.400000
11903 2728 13179 1 149.00000 418.400000
15315 2729 20833 1 149.00000 418.400000
20833 2730 23878 1 149.00000 418.400000
20833 2731 21925 1 149.00000 418.400000
11904 2732 19501 1 149.00000 418.400000
11904 2733 24432 1 149.00000 418.400000
11904 2734 14380 1 149.00000 418.400000
11905 2735 12948 1 149.00000 418.400000
11905 2736 13320 1 149.00000 418.400000
11905 2737 15686 1 149.00000 418.400000
11906 2738 12104 1 149.00000 418.400000
11906 2739 13430 1 149.00000 418.400000
11906 2740 14580 1 149.00000 418.400000
11906 2741 14546 1 149.00000 418.400000
11907 2742 15760 1 149.00000 418.400000
11907 2743 16228 1 149.00000 418.400000
11907 2744 15422 1 149.00000 418.400000
11907 2745 12440 1 149.00000 418.400000
11908 2746 18385 1 149.00000 418.400000
11908 2747 24100 1 149.00000 418.400000
11908 2748 21337 1 149.00000 418.400000
11909 2749 12818 1 149.00000 418.400000
11909 2750 14168 1 149.00000 418.400000
11909 2751 15478 1 149.00000 418.400000
11909 2752 12498 1 149.00000 418.400000
11910 2753 13868 1 149.00000 418.400000
14365 2754 15403 1 149.00000 418.400000
11910 2755 14410 1 149.00000 418.400000
11910 2756 14365 1 149.00000 418.400000
11911 2757 12290 1 149.00000 418.400000
11911 2758 12913 1 149.00000 418.400000
11911 2759 13408 1 149.00000 418.400000
11911 2760 13183 1 149.00000 418.400000
11912 2761 14959 1 149.00000 418.400000
11912 2762 14344 1 149.00000 418.400000
11912 2763 13951 1 149.00000 418.400000
11913 2764 12631 1 149.00000 418.400000
11913 2765 15187 1 149.00000 418.400000
11913 2766 13797 1 149.00000 418.400000
11913 2767 14251 1 149.00000 418.400000
11914 2768 15611 1 149.00000 418.400000
11914 2769 15539 1 149.00000 418.400000
11914 2770 11955 1 149.00000 418.400000
11915 2771 16207 1 149.00000 418.400000
13471 2772 13932 1 149.00000 418.400000
11915 2773 13471 1 149.00000 418.400000
11915 2774 14737 1 149.00000 418.400000
14726 2775 24332 1 149.00000 418.400000
15242 2776 24332 1 149.00000 418.400000
11916 2777 15237 1 149.00000 418.400000
11916 2778 12368 1 149.00000 418.400000
11916 2779 15431 1 149.00000 418.400000
11917 2780 17123 1 149.00000 418.400000
11917 2781 13141 1 149.00000 418.400000
11917 2782 14163 1 149.00000 418.400000
11917 2783 14258 1 149.00000 418.400000
11918 2784 15371 1 149.00000 418.400000
11918 2785 14028 1 149.00000 418.400000
11918 2786 13946 1 149.00000 418.400000
11918 2787 13064 1 149.00000 418.400000
11919 2788 13737 1 149.00000 418.400000
11919 2789 12620 1 149.00000 418.400000
11919 2790 15531 1 149.00000 418.400000
11920 2791 12483 1 149.00000 418.400000
11920 2792 13784 1 149.00000 418.400000
12483 2793 12788 1 149.00000 418.400000
11921 2794 16273 1 149.00000 418.400000
11921 2795 15213 1 149.00000 418.400000
11921 2796 14683 1 149.00000 418.400000
13755 2797 15213 1 149.00000 418.400000
11922 2798 15894 1 149.00000 418.400000
11922 2799 15531 1 149.00000 418.400000
11923 2800 14041 1 149.00000 418.400000
11923 2801 14732 1 149.00000 418.400000
12771 2802 14041 1 149.00000 418.400000
11924 2803 14269 1 149.00000 418.400000
11924 2804 14563 1 149.00000 418.400000
11924 2805 14238 1 149.00000 418.400000
11925 2806 12572 1 149.00000 418.400000
11925 2807 13998 1 149.00000 418.400000
11925 2808 15452 1 149.00000 418.400000
11925 2809 12878 1 149.00000 418.400000
11926 2810 13881 1 149.00000 418.400000
11926 2811 14079 1 149.00000 418.400000
11926 2812 15191 1 149.00000 418.400000
11926 2813 14774 1 149.00000 418.400000
11927 2814 14602 1 149.00000 418.400000
13570 2815 13629 1 149.00000 418.400000
11927 2816 15621 1 149.00000 418.400000
11349 2817 13570 1 149.00000 418.400000
11928 2818 12183 1 149.00000 418.400000
11928 2819 13711 1 149.00000 418.400000
11928 2820 15756 1 149.00000 418.400000
11928 2821 13370 1 149.00000 418.400000
11929 2822 15610 1 149.00000 418.400000
11929 2823 16258 1 149.00000 418.400000
11929 2824 15827 1 149.00000 418.400000
11930 2825 15336 1 149.00000 418.400000
11930 2826 16168 1 149.00000 418.400000
11930 2827 14119 1 149.00000 418.400000
11930 2828 16132 1 149.00000 418.400000
11931 2829 15950 1 149.00000 418.400000
11931 2830 15784 1 149.00000 418.400000
11931 2831 13739 1 149.00000 418.400000
11932 2832 12092 1 149.00000 418.400000
11932 2833 12452 1 149.00000 418.400000
11933 2834 11957 1 149.00000 418.400000
11933 2835 14371 1 149.00000 418.400000
11933 2836 12343 1 149.00000 418.400000
11934 2837 15158 1 149.00000 418.400000
11934 2838 15310 1 149.00000 418.400000
11934 2839 17655 1 149.00000 418.400000
11935 2840 12790 1 149.00000 418.400000
11935 2841 14440 1 149.00000 418.400000
11935 2842 12780 1 149.00000 418.400000
11935 2843 12420 1 149.00000 418.400000
11936 2844 13919 1 149.00000 418.400000
11936 2845 12148 1 149.00000 418.400000
11936 2846 14383 1 149.00000 418.400000
11936 2847 13298 1 149.00000 418.400000
11937 2848 13662 1 149.00000 418.400000
11937 2849 14943 1 149.00000 418.400000
11937 2850 12122 1 149.00000 418.400000
11938 2851 12648 1 149.00000 418.400000
11938 2852 12589 1 149.00000 418.400000
11938 2853 13885 1 149.00000 418.400000
11939 2854 15633 1 149.00000 418.400000
11939 2855 13613 1 149.00000 418.400000
11939 2856 13888 1 149.00000 418.400000
12158 2857 21913 1 149.00000 418.400000
11940 2858 13462 1 149.00000 418.400000
11940 2859 13239 1 149.00000 418.400000
11940 2860 15063 1 149.00000 418.400000
13462 2861 14952 1 149.00000 418.400000
11941 2862 13429 1 149.00000 418.400000
11941 2863 16051 1 149.00000 418.400000
11942 2864 12422 1 149.00000 418.400000
11942 2865 12495 1 149.00000 418.400000
12495 2866 15250 1 149.00000 418.400000
11943 2867 14966 1 149.00000 418.400000
11943 2868 15976 1 149.00000 418.400000
11943 2869 14134 1 149.00000 418.400000
11943 2870 13224 1 149.00000 418.400000
11944 2871 15488 1 149.00000 418.400000
11944 2872 12696 1 149.00000 418.400000
11944 2873 13986 1 149.00000 418.400000
11945 2874 13909 1 149.00000 418.400000
11945 2875 13432 1 149.00000 418.400000
11945 2876 14031 1 149.00000 418.400000
11946 2877 13592 1 149.00000 418.400000
11946 2878 12008 1 149.00000 418.400000
11946 2879 12398 1 149.00000 418.400000
11947 2880 12035 1 149.00000 418.400000
11947 2881 14122 1 149.00000 418.400000
11947 2882 12741 1 149.00000 418.400000
11947 2883 12543 1 149.00000 418.400000
19393 2884 23545 1 149.00000 418.400000
13268 2885 23545 1 149.00000 418.400000
11948 2886 15309 1 149.00000 418.400000
11948 2887 16234 1 149.00000 418.400000
11948 2888 13698 1 149.00000 418.400000
14286 2889 23713 1 149.00000 418.400000
23713 2890 24094 1 149.00000 418.400000
14485 2891 23713 1 149.00000 418.400000
11949 2892 12995 1 149.00000 418.400000
11949 2893 16843 1 149.00000 418.400000
12227 2894 14341 1 149.00000 418.400000
11949 2895 14341 1 149.00000 418.400000
11950 2896 12887 1 149.00000 418.400000
11950 2897 12921 1 149.00000 418.400000
11950 2898 14707 1 149.00000 418.400000
11950 2899 22885 1 149.00000 418.400000
11951 2900 14764 1 149.00000 418.400000
11951 2901 13286 1 149.00000 418.400000
11951 2902 14598 1 149.00000 418.400000
11952 2903 12846 1 149.00000 418.400000
11952 2904 15780 1 149.00000 418.400000
11952 2905 15371 1 149.00000 418.400000
11953 2906 13552 1 149.00000 418.400000
13182 2907 15837 1 149.00000 418.400000
11953 2908 15837 1 149.00000 418.400000
11954 2909 14843 1 149.00000 418.400000
11954 2910 14146 1 149.00000 418.400000
11954 2911 14156 1 149.00000 418.400000
11955 2912 14800 1 149.00000 418.400000
11955 2913 14665 1 149.00000 418.400000
11955 2914 16969 1 149.00000 418.400000
11956 2915 15829 1 149.00000 418.400000
11956 2916 15382 1 149.00000 418.400000
11956 2917 12414 1 149.00000 418.400000
11957 2918 14782 1 149.00000 418.400000
11957 2919 12071 1 149.00000 418.400000
11957 2920 16235 1 149.00000 418.400000
20005 2921 23716 1 149.00000 418.400000
14403 2922 23716 1 149.00000 418.400000
11959 2923 16262 1 149.00000 418.400000
11959 2924 15343 1 149.00000 418.400000
11959 2925 16061 1 149.00000 418.400000
11959 2926 15751 1 149.00000 418.400000
11960 2927 15512 1 149.00000 418.400000
11960 2928 16034 1 149.00000 418.400000
11960 2929 15852 1 149.00000 418.400000
11960 2930 15292 1 149.00000 418.400000
11961 2931 13882 1 149.00000 418.400000
11961 2932 12770 1 149.00000 418.400000
11961 2933 13430 1 149.00000 418.400000
11962 2934 16091 1 149.00000 418.400000
11962 2935 12011 1 149.00000 418.400000
11962 2936 13914 1 149.00000 418.400000
11963 2937 12581 1 149.00000 418.400000
11963 2938 14749 1 149.00000 418.400000
11963 2939 14727 1 149.00000 418.400000
11964 2940 16099 1 149.00000 418.400000
11964 2941 12272 1 149.00000 418.400000
11491 2942 11964 1 149.00000 418.400000
12272 2943 13889 1 149.00000 418.400000
13691 2944 23557 1 149.00000 418.400000
14526 2945 23557 1 149.00000 418.400000
15758 2946 23557 1 149.00000 418.400000
11965 2947 15266 1 149.00000 418.400000
11965 2948 13103 1 149.00000 418.400000
11965 2949 15423 1 149.00000 418.400000
11965 2950 15994 1 149.00000 418.400000
16062 2951 16152 1 149.00000 418.400000
16062 2952 23902 1 149.00000 418.400000
11966 2953 16062 1 149.00000 418.400000
14026 2954 16062 1 149.00000 418.400000
11967 2955 14718 1 149.00000 418.400000
11967 2956 15961 1 149.00000 418.400000
11967 2957 13660 1 149.00000 418.400000
11968 2958 14948 1 149.00000 418.400000
11968 2959 15321 1 149.00000 418.400000
11968 2960 14368 1 149.00000 418.400000
11968 2961 15602 1 149.00000 418.400000
11969 2962 13035 1 149.00000 418.400000
11969 2963 24259 1 149.00000 418.400000
11969 2964 19513 1 149.00000 418.400000
11969 2965 23269 1 149.00000 418.400000
11970 2966 13465 1 149.00000 418.400000
11970 2967 12962 1 149.00000 418.400000
11970 2968 14303 1 149.00000 418.400000
11970 2969 15529 1 149.00000 418.400000
11971 2970 15447 1 149.00000 418.400000
11971 2971 12480 1 149.00000 418.400000
12187 2972 12480 1 149.00000 418.400000
11971 2973 13803 1 149.00000 418.400000
11972 2974 12200 1 149.00000 418.400000
11972 2975 13080 1 149.00000 418.400000
11972 2976 13447 1 149.00000 418.400000
11972 2977 14154 1 149.00000 418.400000
11973 2978 14209 1 149.00000 418.400000
11973 2979 12861 1 149.00000 418.400000
11973 2980 16128 1 149.00000 418.400000
11973 2981 16065 1 149.00000 418.400000
11974 2982 13605 1 149.00000 418.400000
11974 2983 12892 1 149.00000 418.400000
11974 2984 13124 1 149.00000 418.400000
11974 2985 12584 1 149.00000 418.400000
21277 2986 22297 1 149.00000 418.400000
14745 2987 22297 1 149.00000 418.400000
14506 2988 22297 1 149.00000 418.400000
11871 2989 16156 1 149.00000 418.400000
11871 2990 16997 1 149.00000 418.400000
18985 2991 24019 1 149.00000 418.400000
14893 2992 15425 1 149.00000 418.400000
12229 2993 15425 1 149.00000 418.400000
12586 2994 15425 1 149.00000 418.400000
15425 2995 22441 1 149.00000 418.400000
11975 2996 15104 1 149.00000 418.400000
11975 2997 12566 1 149.00000 418.400000
11976 2998 14667 1 149.00000 418.400000
11976 2999 16163 1 149.00000 418.400000
11976 3000 14890 1 149.00000 418.400000
11976 3001 12477 1 149.00000 418.400000
11977 3002 12128 1 149.00000 418.400000
11977 3003 14532 1 149.00000 418.400000
11978 3004 13606 1 149.00000 418.400000
11978 3005 12803 1 149.00000 418.400000
11978 3006 13948 1 149.00000 418.400000
11979 3007 15895 1 149.00000 418.400000
13472 3008 13648 1 149.00000 418.400000
11979 3009 14195 1 149.00000 418.400000
11979 3010 13648 1 149.00000 418.400000
11980 3011 16264 1 149.00000 418.400000
11980 3012 13147 1 149.00000 418.400000
11980 3013 20725 1 149.00000 418.400000
11980 3014 15607 1 149.00000 418.400000
11981 3015 12498 1 149.00000 418.400000
11981 3016 16188 1 149.00000 418.400000
11981 3017 14071 1 149.00000 418.400000
11982 3018 14149 1 149.00000 418.400000
11982 3019 14674 1 149.00000 418.400000
11982 3020 13974 1 149.00000 418.400000
11982 3021 15748 1 149.00000 418.400000
11983 3022 13875 1 149.00000 418.400000
11983 3023 12089 1 149.00000 418.400000
11983 3024 15026 1 149.00000 418.400000
11984 3025 13668 1 149.00000 418.400000
11984 3026 12265 1 149.00000 418.400000
11984 3027 16068 1 149.00000 418.400000
11984 3028 13661 1 149.00000 418.400000
11985 3029 15526 1 149.00000 418.400000
11985 3030 15276 1 149.00000 418.400000
11985 3031 12413 1 149.00000 418.400000
11985 3032 12151 1 149.00000 418.400000
11986 3033 15684 1 149.00000 418.400000
11986 3034 23818 1 149.00000 418.400000
11986 3035 24402 1 149.00000 418.400000
11987 3036 15307 1 149.00000 418.400000
11987 3037 12664 1 149.00000 418.400000
11987 3038 12073 1 149.00000 418.400000
11988 3039 16381 1 149.00000 418.400000
11988 3040 14624 1 149.00000 418.400000
11988 3041 24226 1 149.00000 418.400000
14300 3042 24337 1 149.00000 418.400000
11989 3043 15570 1 149.00000 418.400000
11989 3044 14823 1 149.00000 418.400000
11989 3045 12755 1 149.00000 418.400000
14973 3046 15570 1 149.00000 418.400000
16182 3047 17907 1 149.00000 418.400000
16218 3048 17907 1 149.00000 418.400000
11990 3049 13998 1 149.00000 418.400000
11990 3050 15451 1 149.00000 418.400000
11990 3051 12812 1 149.00000 418.400000
11990 3052 15951 1 149.00000 418.400000
11991 3053 15317 1 149.00000 418.400000
11285 3054 11991 1 149.00000 418.400000
11991 3055 14832 1 149.00000 418.400000
11642 3056 12705 1 149.00000 418.400000
11511 3057 14904 1 149.00000 418.400000
11993 3058 14039 1 149.00000 418.400000
11993 3059 15800 1 149.00000 418.400000
11993 3060 15541 1 149.00000 418.400000
11994 3061 13043 1 149.00000 418.400000
11994 3062 16088 1 149.00000 418.400000
11995 3063 12204 1 149.00000 418.400000
11995 3064 13633 1 149.00000 418.400000
11995 3065 13474 1 149.00000 418.400000
11995 3066 15989 1 149.00000 418.400000
11996 3067 13949 1 149.00000 418.400000
11996 3068 14377 1 149.00000 418.400000
11996 3069 16235 1 149.00000 418.400000
11997 3070 14225 1 149.00000 418.400000
11997 3071 20617 1 149.00000 418.400000
11997 3072 22105 1 149.00000 418.400000
11997 3073 16051 1 149.00000 418.400000
11998 3074 12786 1 149.00000 418.400000
11998 3075 15619 1 149.00000 418.400000
11998 3076 13817 1 149.00000 418.400000
11999 3077 13269 1 149.00000 418.400000
11999 3078 15848 1 149.00000 418.400000
11999 3079 15247 1 149.00000 418.400000
12000 3080 15698 1 149.00000 418.400000
12000 3081 16129 1 149.00000 418.400000
12001 3082 15860 1 149.00000 418.400000
12001 3083 15953 1 149.00000 418.400000
13281 3084 14532 1 149.00000 418.400000
12002 3085 15693 1 149.00000 418.400000
12002 3086 13281 1 149.00000 418.400000
12003 3087 13405 1 149.00000 418.400000
12003 3088 12360 1 149.00000 418.400000
12003 3089 14404 1 149.00000 418.400000
12004 3090 12958 1 149.00000 418.400000
12004 3091 12737 1 149.00000 418.400000
12004 3092 13876 1 149.00000 418.400000
12004 3093 12043 1 149.00000 418.400000
12005 3094 14453 1 149.00000 418.400000
12005 3095 12588 1 149.00000 418.400000
12005 3096 14548 1 149.00000 418.400000
12006 3097 13468 1 149.00000 418.400000
12006 3098 13557 1 149.00000 418.400000
12006 3099 15485 1 149.00000 418.400000
12007 3100 15730 1 149.00000 418.400000
12007 3101 24004 1 149.00000 418.400000
12008 3102 14220 1 149.00000 418.400000
12008 3103 12740 1 149.00000 418.400000
14456 3104 22429 1 149.00000 418.400000
21961 3105 22429 1 149.00000 418.400000
22429 3106 23935 1 149.00000 418.400000
15081 3107 15900 1 149.00000 418.400000
12331 3108 15081 1 149.00000 418.400000
17515 3109 23722 1 149.00000 418.400000
12009 3110 16037 1 149.00000 418.400000
12009 3111 13239 1 149.00000 418.400000
12009 3112 13989 1 149.00000 418.400000
12010 3113 13907 1 149.00000 418.400000
12010 3114 16159 1 149.00000 418.400000
12010 3115 12679 1 149.00000 418.400000
12010 3116 16080 1 149.00000 418.400000
12011 3117 12957 1 149.00000 418.400000
12011 3118 13910 1 149.00000 418.400000
23725 3119 24040 1 149.00000 418.400000
14544 3120 23725 1 149.00000 418.400000
15083 3121 23725 1 149.00000 418.400000
12012 3122 14519 1 149.00000 418.400000
12012 3123 14652 1 149.00000 418.400000
12012 3124 15002 1 149.00000 418.400000
12012 3125 15100 1 149.00000 418.400000
12013 3126 14310 1 149.00000 418.400000
12013 3127 15351 1 149.00000 418.400000
12013 3128 16093 1 149.00000 418.400000
12013 3129 16174 1 149.00000 418.400000
12014 3130 14228 1 149.00000 418.400000
12014 3131 13331 1 149.00000 418.400000
12014 3132 12089 1 149.00000 418.400000
13811 3133 24178 1 149.00000 418.400000
12015 3134 13811 1 149.00000 418.400000
13811 3135 14844 1 149.00000 418.400000
12015 3136 15262 1 149.00000 418.400000
12016 3137 15632 1 149.00000 418.400000
12016 3138 14881 1 149.00000 418.400000
12016 3139 13257 1 149.00000 418.400000
12017 3140 15830 1 149.00000 418.400000
12017 3141 15057 1 149.00000 418.400000
12017 3142 12881 1 149.00000 418.400000
12017 3143 13675 1 149.00000 418.400000
12018 3144 13818 1 149.00000 418.400000
12018 3145 14543 1 149.00000 418.400000
12018 3146 13120 1 149.00000 418.400000
15345 3147 16591 1 149.00000 418.400000
22645 3148 23926 1 149.00000 418.400000
15540 3149 22645 1 149.00000 418.400000
12019 3150 13660 1 149.00000 418.400000
12019 3151 13111 1 149.00000 418.400000
12019 3152 12064 1 149.00000 418.400000
12019 3153 12807 1 149.00000 418.400000
12020 3154 15322 1 149.00000 418.400000
12020 3155 15790 1 149.00000 418.400000
12020 3156 13033 1 149.00000 418.400000
12021 3157 13623 1 149.00000 418.400000
12021 3158 15489 1 149.00000 418.400000
12021 3159 15804 1 149.00000 418.400000
12021 3160 14766 1 149.00000 418.400000
16233 3161 17515 1 149.00000 418.400000
12022 3162 16038 1 149.00000 418.400000
12022 3163 14722 1 149.00000 418.400000
12022 3164 12340 1 149.00000 418.400000
12023 3165 13582 1 149.00000 418.400000
12023 3166 13550 1 149.00000 418.400000
12023 3167 12058 1 149.00000 418.400000
12023 3168 12292 1 149.00000 418.400000
12024 3169 14483 1 149.00000 418.400000
12024 3170 14680 1 149.00000 418.400000
12024 3171 12766 1 149.00000 418.400000
12024 3172 12775 1 149.00000 418.400000
12025 3173 13429 1 149.00000 418.400000
12025 3174 14037 1 149.00000 418.400000
12025 3175 12756 1 149.00000 418.400000
12025 3176 12692 1 149.00000 418.400000
12026 3177 13260 1 149.00000 418.400000
12026 3178 14631 1 149.00000 418.400000
12026 3179 13618 1 149.00000 418.400000
12026 3180 12578 1 149.00000 418.400000
12027 3181 13150 1 149.00000 418.400000
12027 3182 13334 1 149.00000 418.400000
12027 3183 15134 1 149.00000 418.400000
16773 3184 21373 1 149.00000 418.400000
12028 3185 15945 1 149.00000 418.400000
12028 3186 12711 1 149.00000 418.400000
12028 3187 14159 1 149.00000 418.400000
14404 3188 23728 1 149.00000 418.400000
16885 3189 23728 1 149.00000 418.400000
12029 3190 14045 1 149.00000 418.400000
12029 3191 13534 1 149.00000 418.400000
12029 3192 15590 1 149.00000 418.400000
12029 3193 12271 1 149.00000 418.400000
12030 3194 15850 1 149.00000 418.400000
12030 3195 20941 1 149.00000 418.400000
12193 3196 15850 1 149.00000 418.400000
12030 3197 13737 1 149.00000 418.400000
12031 3198 16074 1 149.00000 418.400000
12031 3199 13139 1 149.00000 418.400000
12031 3200 13315 1 149.00000 418.400000
12031 3201 16273 1 149.00000 418.400000
12032 3202 13585 1 149.00000 418.400000
12032 3203 13257 1 149.00000 418.400000
12032 3204 14666 1 149.00000 418.400000
12032 3205 14111 1 149.00000 418.400000
12033 3206 15621 1 149.00000 418.400000
12033 3207 22705 1 149.00000 418.400000
12033 3208 13868 1 149.00000 418.400000
12034 3209 14852 1 149.00000 418.400000
12034 3210 13968 1 149.00000 418.400000
12034 3211 15484 1 149.00000 418.400000
12034 3212 14869 1 149.00000 418.400000
12035 3213 12083 1 149.00000 418.400000
12111 3214 14658 1 149.00000 418.400000
12035 3215 12111 1 149.00000 418.400000
12036 3216 12814 1 149.00000 418.400000
12036 3217 12049 1 149.00000 418.400000
12036 3218 14327 1 149.00000 418.400000
12037 3219 20641 1 149.00000 418.400000
12037 3220 14201 1 149.00000 418.400000
12037 3221 17767 1 149.00000 418.400000
12037 3222 12049 1 149.00000 418.400000
16339 3223 22753 1 149.00000 418.400000
15653 3224 16339 1 149.00000 418.400000
12038 3225 15943 1 149.00000 418.400000
12038 3226 13879 1 149.00000 418.400000
12038 3227 12977 1 149.00000 418.400000
12038 3228 13309 1 149.00000 418.400000
12039 3229 15167 1 149.00000 418.400000
12039 3230 13343 1 149.00000 418.400000
12039 3231 12405 1 149.00000 418.400000
12039 3232 12299 1 149.00000 418.400000
12040 3233 12815 1 149.00000 418.400000
11573 3234 12309 1 149.00000 418.400000
11573 3235 13653 1 149.00000 418.400000
12041 3236 12907 1 149.00000 418.400000
12041 3237 14874 1 149.00000 418.400000
12041 3238 16277 1 149.00000 418.400000
12041 3239 12982 1 149.00000 418.400000
12042 3240 13644 1 149.00000 418.400000
12042 3241 14753 1 149.00000 418.400000
12042 3242 15671 1 149.00000 418.400000
12043 3243 15269 1 149.00000 418.400000
12043 3244 13228 1 149.00000 418.400000
12043 3245 12663 1 149.00000 418.400000
12044 3246 12775 1 149.00000 418.400000
12044 3247 13405 1 149.00000 418.400000
12044 3248 23728 1 149.00000 418.400000
12044 3249 12235 1 149.00000 418.400000
12045 3250 12218 1 149.00000 418.400000
12045 3251 13996 1 149.00000 418.400000
12045 3252 13594 1 149.00000 418.400000
12046 3253 12751 1 149.00000 418.400000
12046 3254 15445 1 149.00000 418.400000
12046 3255 12823 1 149.00000 418.400000
12047 3256 15908 1 149.00000 418.400000
12047 3257 13975 1 149.00000 418.400000
12047 3258 15196 1 149.00000 418.400000
12047 3259 12147 1 149.00000 418.400000
12048 3260 13555 1 149.00000 418.400000
12048 3261 13466 1 149.00000 418.400000
12048 3262 13343 1 149.00000 418.400000
12048 3263 13665 1 149.00000 418.400000
12049 3264 13926 1 149.00000 418.400000
12050 3265 12881 1 149.00000 418.400000
12050 3266 12397 1 149.00000 418.400000
12050 3267 12765 1 149.00000 418.400000
12050 3268 13188 1 149.00000 418.400000
12051 3269 15297 1 149.00000 418.400000
12051 3270 13387 1 149.00000 418.400000
12051 3271 12388 1 149.00000 418.400000
12051 3272 14213 1 149.00000 418.400000
12052 3273 13139 1 149.00000 418.400000
12052 3274 12156 1 149.00000 418.400000
12052 3275 16247 1 149.00000 418.400000
12052 3276 15413 1 149.00000 418.400000
12053 3277 15163 1 149.00000 418.400000
12053 3278 14666 1 149.00000 418.400000
12054 3279 12234 1 149.00000 418.400000
12054 3280 15088 1 149.00000 418.400000
12054 3281 13309 1 149.00000 418.400000
16171 3282 23731 1 149.00000 418.400000
16258 3283 23731 1 149.00000 418.400000
12306 3284 16703 1 149.00000 418.400000
14597 3285 16703 1 149.00000 418.400000
12055 3286 12937 1 149.00000 418.400000
12055 3287 15454 1 149.00000 418.400000
12056 3288 13348 1 149.00000 418.400000
12056 3289 13132 1 149.00000 418.400000
12056 3290 12989 1 149.00000 418.400000
12700 3291 13255 1 149.00000 418.400000
12057 3292 13235 1 149.00000 418.400000
12057 3293 12700 1 149.00000 418.400000
12057 3294 13107 1 149.00000 418.400000
12058 3295 13279 1 149.00000 418.400000
12058 3296 14653 1 149.00000 418.400000
12058 3297 13733 1 149.00000 418.400000
13001 3298 13564 1 149.00000 418.400000
12059 3299 12524 1 149.00000 418.400000
12059 3300 13001 1 149.00000 418.400000
12059 3301 18817 1 149.00000 418.400000
12978 3302 19465 1 149.00000 418.400000
19465 3303 19969 1 149.00000 418.400000
15113 3304 19465 1 149.00000 418.400000
12060 3305 15073 1 149.00000 418.400000
12060 3306 13991 1 149.00000 418.400000
12060 3307 14814 1 149.00000 418.400000
12060 3308 12260 1 149.00000 418.400000
11892 3309 12061 1 149.00000 418.400000
12061 3310 12541 1 149.00000 418.400000
12061 3311 13450 1 149.00000 418.400000
12061 3312 15864 1 149.00000 418.400000
12062 3313 15568 1 149.00000 418.400000
12062 3314 15689 1 149.00000 418.400000
12062 3315 12180 1 149.00000 418.400000
12062 3316 15865 1 149.00000 418.400000
12063 3317 14074 1 149.00000 418.400000
12063 3318 15598 1 149.00000 418.400000
12063 3319 14164 1 149.00000 418.400000
12064 3320 15288 1 149.00000 418.400000
12064 3321 15853 1 149.00000 418.400000
12064 3322 13413 1 149.00000 418.400000
12065 3323 14461 1 149.00000 418.400000
12065 3324 12899 1 149.00000 418.400000
12066 3325 13157 1 149.00000 418.400000
12066 3326 14116 1 149.00000 418.400000
12066 3327 13311 1 149.00000 418.400000
12884 3328 14116 1 149.00000 418.400000
12067 3329 13432 1 149.00000 418.400000
12067 3330 13152 1 149.00000 418.400000
12067 3331 12634 1 149.00000 418.400000
12067 3332 18047 1 149.00000 418.400000
22393 3333 23101 1 149.00000 418.400000
13806 3334 23101 1 149.00000 418.400000
13769 3335 23101 1 149.00000 418.400000
15118 3336 21241 1 149.00000 418.400000
19501 3337 21241 1 149.00000 418.400000
15316 3338 18973 1 149.00000 418.400000
15674 3339 18973 1 149.00000 418.400000
12068 3340 13376 1 149.00000 418.400000
12068 3341 12999 1 149.00000 418.400000
12068 3342 13097 1 149.00000 418.400000
12068 3343 15512 1 149.00000 418.400000
12069 3344 13536 1 149.00000 418.400000
12069 3345 24091 1 149.00000 418.400000
12069 3346 12419 1 149.00000 418.400000
12069 3347 17893 1 149.00000 418.400000
12070 3348 14473 1 149.00000 418.400000
12070 3349 14228 1 149.00000 418.400000
12070 3350 12387 1 149.00000 418.400000
13573 3351 23734 1 149.00000 418.400000
14914 3352 23734 1 149.00000 418.400000
16000 3353 23734 1 149.00000 418.400000
12071 3354 14339 1 149.00000 418.400000
12071 3355 15861 1 149.00000 418.400000
12071 3356 14377 1 149.00000 418.400000
13803 3357 16269 1 149.00000 418.400000
12072 3358 23851 1 149.00000 418.400000
12072 3359 13803 1 149.00000 418.400000
12072 3360 12279 1 149.00000 418.400000
12073 3361 14282 1 149.00000 418.400000
12073 3362 15983 1 149.00000 418.400000
12073 3363 12817 1 149.00000 418.400000
12074 3364 12309 1 149.00000 418.400000
12074 3365 19969 1 149.00000 418.400000
13285 3366 16073 1 149.00000 418.400000
12074 3367 13285 1 149.00000 418.400000
12075 3368 12941 1 149.00000 418.400000
12075 3369 12951 1 149.00000 418.400000
12075 3370 15455 1 149.00000 418.400000
13145 3371 20317 1 149.00000 418.400000
12076 3372 21625 1 149.00000 418.400000
12076 3373 12931 1 149.00000 418.400000
12076 3374 12092 1 149.00000 418.400000
12076 3375 15094 1 149.00000 418.400000
14330 3376 19549 1 149.00000 418.400000
15060 3377 19549 1 149.00000 418.400000
15019 3378 19549 1 149.00000 418.400000
13130 3379 23737 1 149.00000 418.400000
23737 3380 24160 1 149.00000 418.400000
12077 3381 14498 1 149.00000 418.400000
12077 3382 14389 1 149.00000 418.400000
12077 3383 12536 1 149.00000 418.400000
12077 3384 13775 1 149.00000 418.400000
14676 3385 21133 1 149.00000 418.400000
12586 3386 21133 1 149.00000 418.400000
13220 3387 21133 1 149.00000 418.400000
12078 3388 15593 1 149.00000 418.400000
12078 3389 12872 1 149.00000 418.400000
12078 3390 14149 1 149.00000 418.400000
12078 3391 13419 1 149.00000 418.400000
12079 3392 13992 1 149.00000 418.400000
12079 3393 12674 1 149.00000 418.400000
12079 3394 16198 1 149.00000 418.400000
12079 3395 13391 1 149.00000 418.400000
12080 3396 12336 1 149.00000 418.400000
12080 3397 13925 1 149.00000 418.400000
12080 3398 16155 1 149.00000 418.400000
12081 3399 15719 1 149.00000 418.400000
12081 3400 13216 1 149.00000 418.400000
12081 3401 13617 1 149.00000 418.400000
12082 3402 14502 1 149.00000 418.400000
12082 3403 13486 1 149.00000 418.400000
12082 3404 14977 1 149.00000 418.400000
12082 3405 13928 1 149.00000 418.400000
12083 3406 15874 1 149.00000 418.400000
12373 3407 14606 1 149.00000 418.400000
12084 3408 12373 1 149.00000 418.400000
12084 3409 14938 1 149.00000 418.400000
12085 3410 15926 1 149.00000 418.400000
12085 3411 16098 1 149.00000 418.400000
12085 3412 14180 1 149.00000 418.400000
12085 3413 16004 1 149.00000 418.400000
12086 3414 12820 1 149.00000 418.400000
12820 3415 13812 1 149.00000 418.400000
12086 3416 12645 1 149.00000 418.400000
14392 3417 23740 1 149.00000 418.400000
20353 3418 23740 1 149.00000 418.400000
23740 3419 23896 1 149.00000 418.400000
12087 3420 14357 1 149.00000 418.400000
12087 3421 14778 1 149.00000 418.400000
12087 3422 15320 1 149.00000 418.400000
12087 3423 15357 1 149.00000 418.400000
15305 3424 22669 1 149.00000 418.400000
22669 3425 23950 1 149.00000 418.400000
12088 3426 15169 1 149.00000 418.400000
12088 3427 13742 1 149.00000 418.400000
12088 3428 15663 1 149.00000 418.400000
12088 3429 14386 1 149.00000 418.400000
14996 3430 16395 1 149.00000 418.400000
14130 3431 16395 1 149.00000 418.400000
11956 3432 12089 1 149.00000 418.400000
12089 3433 13805 1 149.00000 418.400000
12102 3434 23719 1 149.00000 418.400000
12090 3435 14415 1 149.00000 418.400000
12090 3436 12129 1 149.00000 418.400000
12090 3437 14593 1 149.00000 418.400000
12090 3438 14353 1 149.00000 418.400000
12091 3439 12674 1 149.00000 418.400000
12091 3440 12724 1 149.00000 418.400000
12091 3441 16071 1 149.00000 418.400000
12091 3442 15149 1 149.00000 418.400000
12092 3443 23293 1 149.00000 418.400000
12093 3444 12799 1 149.00000 418.400000
12093 3445 13186 1 149.00000 418.400000
12093 3446 13437 1 149.00000 418.400000
12093 3447 13244 1 149.00000 418.400000
12094 3448 12686 1 149.00000 418.400000
12094 3449 14257 1 149.00000 418.400000
12035 3450 12094 1 149.00000 418.400000
12094 3451 15347 1 149.00000 418.400000
12095 3452 14281 1 149.00000 418.400000
12095 3453 13000 1 149.00000 418.400000
12096 3454 14396 1 149.00000 418.400000
12096 3455 12126 1 149.00000 418.400000
12096 3456 15412 1 149.00000 418.400000
12097 3457 15859 1 149.00000 418.400000
14418 3458 16206 1 149.00000 418.400000
12097 3459 12646 1 149.00000 418.400000
12098 3460 15311 1 149.00000 418.400000
12098 3461 13971 1 149.00000 418.400000
12098 3462 15509 1 149.00000 418.400000
12098 3463 24283 1 149.00000 418.400000
11416 3464 12099 1 149.00000 418.400000
12099 3465 14463 1 149.00000 418.400000
12099 3466 14819 1 149.00000 418.400000
12099 3467 15654 1 149.00000 418.400000
12100 3468 15579 1 149.00000 418.400000
12100 3469 13797 1 149.00000 418.400000
12100 3470 21109 1 149.00000 418.400000
12101 3471 13296 1 149.00000 418.400000
12101 3472 14639 1 149.00000 418.400000
12101 3473 14635 1 149.00000 418.400000
12101 3474 13114 1 149.00000 418.400000
12102 3475 15284 1 149.00000 418.400000
12102 3476 14023 1 149.00000 418.400000
12176 3477 20053 1 149.00000 418.400000
19993 3478 20053 1 149.00000 418.400000
19069 3479 20053 1 149.00000 418.400000
12103 3480 13117 1 149.00000 418.400000
12103 3481 15588 1 149.00000 418.400000
12103 3482 13903 1 149.00000 418.400000
12103 3483 13626 1 149.00000 418.400000
12104 3484 14599 1 149.00000 418.400000
12104 3485 16268 1 149.00000 418.400000
15132 3486 23743 1 149.00000 418.400000
13112 3487 23743 1 149.00000 418.400000
14512 3488 23743 1 149.00000 418.400000
12105 3489 16104 1 149.00000 418.400000
12105 3490 16745 1 149.00000 418.400000
12105 3491 12911 1 149.00000 418.400000
20413 3492 22897 1 149.00000 418.400000
20413 3493 24145 1 149.00000 418.400000
15826 3494 23986 1 149.00000 418.400000
12106 3495 13402 1 149.00000 418.400000
12106 3496 14790 1 149.00000 418.400000
12106 3497 15492 1 149.00000 418.400000
12106 3498 14590 1 149.00000 418.400000
12107 3499 15941 1 149.00000 418.400000
12107 3500 18901 1 149.00000 418.400000
12107 3501 13600 1 149.00000 418.400000
12107 3502 14556 1 149.00000 418.400000
12108 3503 13233 1 149.00000 418.400000
12108 3504 24397 1 149.00000 418.400000
12108 3505 15781 1 149.00000 418.400000
12109 3506 13999 1 149.00000 418.400000
12109 3507 14731 1 149.00000 418.400000
12109 3508 14586 1 149.00000 418.400000
12109 3509 15554 1 149.00000 418.400000
12110 3510 13555 1 149.00000 418.400000
12110 3511 13568 1 149.00000 418.400000
12110 3512 14736 1 149.00000 418.400000
12110 3513 16005 1 149.00000 418.400000
12111 3514 14633 1 149.00000 418.400000
12111 3515 15577 1 149.00000 418.400000
12112 3516 15073 1 149.00000 418.400000
12112 3517 12416 1 149.00000 418.400000
12113 3518 13916 1 149.00000 418.400000
12113 3519 23113 1 149.00000 418.400000
12113 3520 12783 1 149.00000 418.400000
12114 3521 15522 1 149.00000 418.400000
12114 3522 13113 1 149.00000 418.400000
12114 3523 15632 1 149.00000 418.400000
12114 3524 15626 1 149.00000 418.400000
23017 3525 23746 1 149.00000 418.400000
15122 3526 23746 1 149.00000 418.400000
23746 3527 24112 1 149.00000 418.400000
12115 3528 16139 1 149.00000 418.400000
12115 3529 15873 1 149.00000 418.400000
12115 3530 15353 1 149.00000 418.400000
12116 3531 13641 1 149.00000 418.400000
12116 3532 13007 1 149.00000 418.400000
12116 3533 13450 1 149.00000 418.400000
12116 3534 15467 1 149.00000 418.400000
12117 3535 12555 1 149.00000 418.400000
12117 3536 16268 1 149.00000 418.400000
12117 3537 16899 1 149.00000 418.400000
12118 3538 16195 1 149.00000 418.400000
12118 3539 23827 1 149.00000 418.400000
12118 3540 17571 1 149.00000 418.400000
12118 3541 13872 1 149.00000 418.400000
12119 3542 12296 1 149.00000 418.400000
12119 3543 17795 1 149.00000 418.400000
12119 3544 14068 1 149.00000 418.400000
12119 3545 14274 1 149.00000 418.400000
12120 3546 15665 1 149.00000 418.400000
12120 3547 12464 1 149.00000 418.400000
12120 3548 14492 1 149.00000 418.400000
12121 3549 22729 1 149.00000 418.400000
12121 3550 14423 1 149.00000 418.400000
12121 3551 14541 1 149.00000 418.400000
12121 3552 15178 1 149.00000 418.400000
12122 3553 14014 1 149.00000 418.400000
12122 3554 13516 1 149.00000 418.400000
12123 3555 15997 1 149.00000 418.400000
12123 3556 12350 1 149.00000 418.400000
12123 3557 16044 1 149.00000 418.400000
12123 3558 14760 1 149.00000 418.400000
18445 3559 23749 1 149.00000 418.400000
23749 3560 24462 1 149.00000 418.400000
13536 3561 23749 1 149.00000 418.400000
15581 3562 16196 1 149.00000 418.400000
12124 3563 12212 1 149.00000 418.400000
12124 3564 15581 1 149.00000 418.400000
12707 3565 15581 1 149.00000 418.400000
13383 3566 23752 1 149.00000 418.400000
20677 3567 23752 1 149.00000 418.400000
19705 3568 23752 1 149.00000 418.400000
24289 3569 24342 1 149.00000 418.400000
19141 3570 24342 1 149.00000 418.400000
12125 3571 14354 1 149.00000 418.400000
12125 3572 13110 1 149.00000 418.400000
12125 3573 14196 1 149.00000 418.400000
12125 3574 12360 1 149.00000 418.400000
12126 3575 12688 1 149.00000 418.400000
12126 3576 15984 1 149.00000 418.400000
11642 3577 13117 1 149.00000 418.400000
12127 3578 13232 1 149.00000 418.400000
12127 3579 13903 1 149.00000 418.400000
12128 3580 15939 1 149.00000 418.400000
12128 3581 15391 1 149.00000 418.400000
12128 3582 15153 1 149.00000 418.400000
12129 3583 14127 1 149.00000 418.400000
12130 3584 14928 1 149.00000 418.400000
12130 3585 15338 1 149.00000 418.400000
12130 3586 12797 1 149.00000 418.400000
12923 3587 16011 1 149.00000 418.400000
12131 3588 12923 1 149.00000 418.400000
12131 3589 16105 1 149.00000 418.400000
12131 3590 13029 1 149.00000 418.400000
12132 3591 15273 1 149.00000 418.400000
12132 3592 12450 1 149.00000 418.400000
12132 3593 12784 1 149.00000 418.400000
12132 3594 14935 1 149.00000 418.400000
12133 3595 13586 1 149.00000 418.400000
12133 3596 15674 1 149.00000 418.400000
12133 3597 14162 1 149.00000 418.400000
12134 3598 14690 1 149.00000 418.400000
12134 3599 12310 1 149.00000 418.400000
12134 3600 12223 1 149.00000 418.400000
17375 3601 21937 1 149.00000 418.400000
12135 3602 14379 1 149.00000 418.400000
12135 3603 23509 1 149.00000 418.400000
12135 3604 20557 1 149.00000 418.400000
12136 3605 14100 1 149.00000 418.400000
12136 3606 13750 1 149.00000 418.400000
12136 3607 14137 1 149.00000 418.400000
12136 3608 14019 1 149.00000 418.400000
12137 3609 14886 1 149.00000 418.400000
12137 3610 13953 1 149.00000 418.400000
12137 3611 15779 1 149.00000 418.400000
12137 3612 15061 1 149.00000 418.400000
12138 3613 14603 1 149.00000 418.400000
12138 3614 12531 1 149.00000 418.400000
12138 3615 14716 1 149.00000 418.400000
12138 3616 13074 1 149.00000 418.400000
11605 3617 14813 1 149.00000 418.400000
12139 3618 13466 1 149.00000 418.400000
12139 3619 12763 1 149.00000 418.400000
12140 3620 14967 1 149.00000 418.400000
12140 3621 14240 1 149.00000 418.400000
12140 3622 15387 1 149.00000 418.400000
12141 3623 12437 1 149.00000 418.400000
12141 3624 15429 1 149.00000 418.400000
15429 3625 20605 1 149.00000 418.400000
12141 3626 19285 1 149.00000 418.400000
16619 3627 22609 1 149.00000 418.400000
21169 3628 22513 1 149.00000 418.400000
12142 3629 13515 1 149.00000 418.400000
13515 3630 15298 1 149.00000 418.400000
12142 3631 14941 1 149.00000 418.400000
12143 3632 12611 1 149.00000 418.400000
12143 3633 24295 1 149.00000 418.400000
12143 3634 13461 1 149.00000 418.400000
24088 3635 24295 1 149.00000 418.400000
12144 3636 15681 1 149.00000 418.400000
12144 3637 13791 1 149.00000 418.400000
12145 3638 15380 1 149.00000 418.400000
12145 3639 15400 1 149.00000 418.400000
12145 3640 15915 1 149.00000 418.400000
12145 3641 13915 1 149.00000 418.400000
15255 3642 18949 1 149.00000 418.400000
14750 3643 18949 1 149.00000 418.400000
16325 3644 23173 1 149.00000 418.400000
21325 3645 23173 1 149.00000 418.400000
12146 3646 13997 1 149.00000 418.400000
12146 3647 13205 1 149.00000 418.400000
12146 3648 12707 1 149.00000 418.400000
12147 3649 12997 1 149.00000 418.400000
12147 3650 14948 1 149.00000 418.400000
12148 3651 15535 1 149.00000 418.400000
12148 3652 12272 1 149.00000 418.400000
12148 3653 15953 1 149.00000 418.400000
12149 3654 12933 1 149.00000 418.400000
11755 3655 13593 1 149.00000 418.400000
12149 3656 13762 1 149.00000 418.400000
12149 3657 13593 1 149.00000 418.400000
12150 3658 15960 1 149.00000 418.400000
12150 3659 14740 1 149.00000 418.400000
12150 3660 14820 1 149.00000 418.400000
12151 3661 14539 1 149.00000 418.400000
12151 3662 15387 1 149.00000 418.400000
12151 3663 14740 1 149.00000 418.400000
12152 3664 12362 1 149.00000 418.400000
12152 3665 13074 1 149.00000 418.400000
12152 3666 13585 1 149.00000 418.400000
12152 3667 13789 1 149.00000 418.400000
12153 3668 14505 1 149.00000 418.400000
12153 3669 14380 1 149.00000 418.400000
12153 3670 12239 1 149.00000 418.400000
12153 3671 15789 1 149.00000 418.400000
12154 3672 12910 1 149.00000 418.400000
12154 3673 14189 1 149.00000 418.400000
12154 3674 13935 1 149.00000 418.400000
12154 3675 14239 1 149.00000 418.400000
16041 3676 23755 1 149.00000 418.400000
19333 3677 23755 1 149.00000 418.400000
12155 3678 15185 1 149.00000 418.400000
12155 3679 12525 1 149.00000 418.400000
12155 3680 15320 1 149.00000 418.400000
12156 3681 15262 1 149.00000 418.400000
12156 3682 13588 1 149.00000 418.400000
12157 3683 15635 1 149.00000 418.400000
12157 3684 15864 1 149.00000 418.400000
12157 3685 15218 1 149.00000 418.400000
12158 3686 12582 1 149.00000 418.400000
12158 3687 12333 1 149.00000 418.400000
12159 3688 12586 1 149.00000 418.400000
12159 3689 15394 1 149.00000 418.400000
12159 3690 15664 1 149.00000 418.400000
12160 3691 14117 1 149.00000 418.400000
12160 3692 15052 1 149.00000 418.400000
12160 3693 12892 1 149.00000 418.400000
12161 3694 16059 1 149.00000 418.400000
11403 3695 12161 1 149.00000 418.400000
12161 3696 14509 1 149.00000 418.400000
12161 3697 16077 1 149.00000 418.400000
12162 3698 13488 1 149.00000 418.400000
12162 3699 13435 1 149.00000 418.400000
12162 3700 14856 1 149.00000 418.400000
12162 3701 12401 1 149.00000 418.400000
12163 3702 13100 1 149.00000 418.400000
12163 3703 13626 1 149.00000 418.400000
12164 3704 14600 1 149.00000 418.400000
12164 3705 15584 1 149.00000 418.400000
12164 3706 12228 1 149.00000 418.400000
12164 3707 13373 1 149.00000 418.400000
12876 3708 13813 1 149.00000 418.400000
12165 3709 12876 1 149.00000 418.400000
12165 3710 16216 1 149.00000 418.400000
12165 3711 15723 1 149.00000 418.400000
12166 3712 13104 1 149.00000 418.400000
12166 3713 12543 1 149.00000 418.400000
13104 3714 13792 1 149.00000 418.400000
12166 3715 14838 1 149.00000 418.400000
12167 3716 15609 1 149.00000 418.400000
12167 3717 12605 1 149.00000 418.400000
12167 3718 15853 1 149.00000 418.400000
12167 3719 13147 1 149.00000 418.400000
12168 3720 13340 1 149.00000 418.400000
12168 3721 12379 1 149.00000 418.400000
12168 3722 13759 1 149.00000 418.400000
12169 3723 14002 1 149.00000 418.400000
12169 3724 13708 1 149.00000 418.400000
12169 3725 12484 1 149.00000 418.400000
12170 3726 15181 1 149.00000 418.400000
12170 3727 22273 1 149.00000 418.400000
12171 3728 13174 1 149.00000 418.400000
13013 3729 13174 1 149.00000 418.400000
12171 3730 15013 1 149.00000 418.400000
12171 3731 15901 1 149.00000 418.400000
12172 3732 16138 1 149.00000 418.400000
12172 3733 12725 1 149.00000 418.400000
12172 3734 14094 1 149.00000 418.400000
12172 3735 16177 1 149.00000 418.400000
23758 3736 24301 1 149.00000 418.400000
15606 3737 23758 1 149.00000 418.400000
12173 3738 16231 1 149.00000 418.400000
12072 3739 12173 1 149.00000 418.400000
12173 3740 22921 1 149.00000 418.400000
12174 3741 14061 1 149.00000 418.400000
12174 3742 15774 1 149.00000 418.400000
12174 3743 12681 1 149.00000 418.400000
12174 3744 15241 1 149.00000 418.400000
12175 3745 14619 1 149.00000 418.400000
12175 3746 16221 1 149.00000 418.400000
12175 3747 12840 1 149.00000 418.400000
12175 3748 16164 1 149.00000 418.400000
12176 3749 12703 1 149.00000 418.400000
12176 3750 16178 1 149.00000 418.400000
12177 3751 21793 1 149.00000 418.400000
12177 3752 16115 1 149.00000 418.400000
12177 3753 12546 1 149.00000 418.400000
12177 3754 12224 1 149.00000 418.400000
12178 3755 13393 1 149.00000 418.400000
12178 3756 13982 1 149.00000 418.400000
12178 3757 15863 1 149.00000 418.400000
12178 3758 12442 1 149.00000 418.400000
11864 3759 12406 1 149.00000 418.400000
12179 3760 14612 1 149.00000 418.400000
12179 3761 15981 1 149.00000 418.400000
12180 3762 13129 1 149.00000 418.400000
12180 3763 15789 1 149.00000 418.400000
12181 3764 13923 1 149.00000 418.400000
12181 3765 15701 1 149.00000 418.400000
12182 3766 13455 1 149.00000 418.400000
12182 3767 13684 1 149.00000 418.400000
12182 3768 14851 1 149.00000 418.400000
12182 3769 14426 1 149.00000 418.400000
11473 3770 15330 1 149.00000 418.400000
19753 3771 23932 1 149.00000 418.400000
14047 3772 19753 1 149.00000 418.400000
12184 3773 22333 1 149.00000 418.400000
12184 3774 13400 1 149.00000 418.400000
12184 3775 19765 1 149.00000 418.400000
12185 3776 16229 1 149.00000 418.400000
12185 3777 12585 1 149.00000 418.400000
12185 3778 12601 1 149.00000 418.400000
12185 3779 23893 1 149.00000 418.400000
12186 3780 15207 1 149.00000 418.400000
12186 3781 13992 1 149.00000 418.400000
12186 3782 15295 1 149.00000 418.400000
12186 3783 12433 1 149.00000 418.400000
12187 3784 15965 1 149.00000 418.400000
12187 3785 15677 1 149.00000 418.400000
12187 3786 13276 1 149.00000 418.400000
12188 3787 13045 1 149.00000 418.400000
12188 3788 12193 1 149.00000 418.400000
12188 3789 12768 1 149.00000 418.400000
12189 3790 12861 1 149.00000 418.400000
12189 3791 14838 1 149.00000 418.400000
12189 3792 14287 1 149.00000 418.400000
12190 3793 14366 1 149.00000 418.400000
12190 3794 12639 1 149.00000 418.400000
12190 3795 15721 1 149.00000 418.400000
11583 3796 12190 1 149.00000 418.400000
12191 3797 13143 1 149.00000 418.400000
12191 3798 12374 1 149.00000 418.400000
12191 3799 12997 1 149.00000 418.400000
12191 3800 15974 1 149.00000 418.400000
12192 3801 15595 1 149.00000 418.400000
12192 3802 12788 1 149.00000 418.400000
12192 3803 13412 1 149.00000 418.400000
12192 3804 13432 1 149.00000 418.400000
12188 3805 12213 1 149.00000 418.400000
12193 3806 12652 1 149.00000 418.400000
12193 3807 14808 1 149.00000 418.400000
12194 3808 14794 1 149.00000 418.400000
12194 3809 14503 1 149.00000 418.400000
12194 3810 12499 1 149.00000 418.400000
12194 3811 13816 1 149.00000 418.400000
14260 3812 16228 1 149.00000 418.400000
12195 3813 12976 1 149.00000 418.400000
12195 3814 16086 1 149.00000 418.400000
12195 3815 14260 1 149.00000 418.400000
12196 3816 14171 1 149.00000 418.400000
12196 3817 13525 1 149.00000 418.400000
12196 3818 13083 1 149.00000 418.400000
12197 3819 13722 1 149.00000 418.400000
12197 3820 14357 1 149.00000 418.400000
12197 3821 13692 1 149.00000 418.400000
12197 3822 14733 1 149.00000 418.400000
12198 3823 14829 1 149.00000 418.400000
12198 3824 14247 1 149.00000 418.400000
12198 3825 14438 1 149.00000 418.400000
12199 3826 15577 1 149.00000 418.400000
12199 3827 13725 1 149.00000 418.400000
12199 3828 12741 1 149.00000 418.400000
12200 3829 16005 1 149.00000 418.400000
12200 3830 14814 1 149.00000 418.400000
12200 3831 14449 1 149.00000 418.400000
12201 3832 23668 1 149.00000 418.400000
13897 3833 16147 1 149.00000 418.400000
12201 3834 22717 1 149.00000 418.400000
12202 3835 15320 1 149.00000 418.400000
12202 3836 13735 1 149.00000 418.400000
12202 3837 16102 1 149.00000 418.400000
12203 3838 13961 1 149.00000 418.400000
12203 3839 13414 1 149.00000 418.400000
12203 3840 13703 1 149.00000 418.400000
12203 3841 15897 1 149.00000 418.400000
12204 3842 12733 1 149.00000 418.400000
12204 3843 14532 1 149.00000 418.400000
12204 3844 15601 1 149.00000 418.400000
12205 3845 20377 1 149.00000 418.400000
12205 3846 15049 1 149.00000 418.400000
12205 3847 12708 1 149.00000 418.400000
12205 3848 15880 1 149.00000 418.400000
12206 3849 13404 1 149.00000 418.400000
12206 3850 12517 1 149.00000 418.400000
12206 3851 12802 1 149.00000 418.400000
12207 3852 13165 1 149.00000 418.400000
12207 3853 14692 1 149.00000 418.400000
12207 3854 15936 1 149.00000 418.400000
12208 3855 15623 1 149.00000 418.400000
12208 3856 14215 1 149.00000 418.400000
12208 3857 15739 1 149.00000 418.400000
12208 3858 13444 1 149.00000 418.400000
12209 3859 13124 1 149.00000 418.400000
12209 3860 15978 1 149.00000 418.400000
12209 3861 15811 1 149.00000 418.400000
12209 3862 13707 1 149.00000 418.400000
12210 3863 13869 1 149.00000 418.400000
12210 3864 15269 1 149.00000 418.400000
12210 3865 16143 1 149.00000 418.400000
12210 3866 15289 1 149.00000 418.400000
12211 3867 13143 1 149.00000 418.400000
12211 3868 15126 1 149.00000 418.400000
12212 3869 15363 1 149.00000 418.400000
12213 3870 15805 1 149.00000 418.400000
12213 3871 13128 1 149.00000 418.400000
12213 3872 12841 1 149.00000 418.400000
12214 3873 13114 1 149.00000 418.400000
12214 3874 14348 1 149.00000 418.400000
12214 3875 14837 1 149.00000 418.400000
12214 3876 12688 1 149.00000 418.400000
12783 3877 23761 1 149.00000 418.400000
23761 3878 24166 1 149.00000 418.400000
23209 3879 23593 1 149.00000 418.400000
23593 3880 23995 1 149.00000 418.400000
15130 3881 23593 1 149.00000 418.400000
12215 3882 14585 1 149.00000 418.400000
12215 3883 13778 1 149.00000 418.400000
12215 3884 13110 1 149.00000 418.400000
12215 3885 24031 1 149.00000 418.400000
12216 3886 14539 1 149.00000 418.400000
12216 3887 15276 1 149.00000 418.400000
12216 3888 15665 1 149.00000 418.400000
12217 3889 15556 1 149.00000 418.400000
12217 3890 13142 1 149.00000 418.400000
12217 3891 14062 1 149.00000 418.400000
12218 3892 13238 1 149.00000 418.400000
12218 3893 12331 1 149.00000 418.400000
12218 3894 15224 1 149.00000 418.400000
12219 3895 15449 1 149.00000 418.400000
12219 3896 14322 1 149.00000 418.400000
12219 3897 14339 1 149.00000 418.400000
12219 3898 15151 1 149.00000 418.400000
12220 3899 23269 1 149.00000 418.400000
12220 3900 13082 1 149.00000 418.400000
12220 3901 16209 1 149.00000 418.400000
12221 3902 14063 1 149.00000 418.400000
12221 3903 13604 1 149.00000 418.400000
12221 3904 23794 1 149.00000 418.400000
12221 3905 12247 1 149.00000 418.400000
12222 3906 14587 1 149.00000 418.400000
12222 3907 13240 1 149.00000 418.400000
12222 3908 14918 1 149.00000 418.400000
12222 3909 12494 1 149.00000 418.400000
12223 3910 15041 1 149.00000 418.400000
12223 3911 14136 1 149.00000 418.400000
12223 3912 12491 1 149.00000 418.400000
12224 3913 14417 1 149.00000 418.400000
12224 3914 20113 1 149.00000 418.400000
12225 3915 14233 1 149.00000 418.400000
12225 3916 15082 1 149.00000 418.400000
12225 3917 12724 1 149.00000 418.400000
12225 3918 16257 1 149.00000 418.400000
13687 3919 14192 1 149.00000 418.400000
12226 3920 13687 1 149.00000 418.400000
12226 3921 16194 1 149.00000 418.400000
22345 3922 22621 1 149.00000 418.400000
12227 3923 22345 1 149.00000 418.400000
12228 3924 15107 1 149.00000 418.400000
12228 3925 14946 1 149.00000 418.400000
12228 3926 13855 1 149.00000 418.400000
12229 3927 24118 1 149.00000 418.400000
12229 3928 14375 1 149.00000 418.400000
12230 3929 13086 1 149.00000 418.400000
12230 3930 22393 1 149.00000 418.400000
12231 3931 14295 1 149.00000 418.400000
12231 3932 15259 1 149.00000 418.400000
12231 3933 14345 1 149.00000 418.400000
12231 3934 13675 1 149.00000 418.400000
13077 3935 22897 1 149.00000 418.400000
13077 3936 16465 1 149.00000 418.400000
12232 3937 13132 1 149.00000 418.400000
12232 3938 13542 1 149.00000 418.400000
12233 3939 14675 1 149.00000 418.400000
12233 3940 12838 1 149.00000 418.400000
12233 3941 13782 1 149.00000 418.400000
12233 3942 15347 1 149.00000 418.400000
12234 3943 13521 1 149.00000 418.400000
12234 3944 12970 1 149.00000 418.400000
12234 3945 14990 1 149.00000 418.400000
12235 3946 24157 1 149.00000 418.400000
12236 3947 13650 1 149.00000 418.400000
12236 3948 13262 1 149.00000 418.400000
12236 3949 14543 1 149.00000 418.400000
12237 3950 12591 1 149.00000 418.400000
12237 3951 14450 1 149.00000 418.400000
12237 3952 12920 1 149.00000 418.400000
12237 3953 13497 1 149.00000 418.400000
12238 3954 13341 1 149.00000 418.400000
12238 3955 13792 1 149.00000 418.400000
13341 3956 18075 1 149.00000 418.400000
12238 3957 13104 1 149.00000 418.400000
12239 3958 14279 1 149.00000 418.400000
12239 3959 14438 1 149.00000 418.400000
12240 3960 14122 1 149.00000 418.400000
12240 3961 12398 1 149.00000 418.400000
12241 3962 13530 1 149.00000 418.400000
12241 3963 14499 1 149.00000 418.400000
12241 3964 12935 1 149.00000 418.400000
12241 3965 14808 1 149.00000 418.400000
12242 3966 13999 1 149.00000 418.400000
12242 3967 15048 1 149.00000 418.400000
12242 3968 14087 1 149.00000 418.400000
12242 3969 13494 1 149.00000 418.400000
12243 3970 15142 1 149.00000 418.400000
12243 3971 12256 1 149.00000 418.400000
11622 3972 13325 1 149.00000 418.400000
12244 3973 12890 1 149.00000 418.400000
12244 3974 20533 1 149.00000 418.400000
12244 3975 14668 1 149.00000 418.400000
12244 3976 23389 1 149.00000 418.400000
12245 3977 14322 1 149.00000 418.400000
12245 3978 15235 1 149.00000 418.400000
12246 3979 13750 1 149.00000 418.400000
12246 3980 13020 1 149.00000 418.400000
12246 3981 14378 1 149.00000 418.400000
12247 3982 16137 1 149.00000 418.400000
12247 3983 21661 1 149.00000 418.400000
12247 3984 13531 1 149.00000 418.400000
12248 3985 14216 1 149.00000 418.400000
12248 3986 16265 1 149.00000 418.400000
12248 3987 15628 1 149.00000 418.400000
12248 3988 14520 1 149.00000 418.400000
12249 3989 15227 1 149.00000 418.400000
12249 3990 13078 1 149.00000 418.400000
12249 3991 13994 1 149.00000 418.400000
12249 3992 14342 1 149.00000 418.400000
12250 3993 22225 1 149.00000 418.400000
12250 3994 12961 1 149.00000 418.400000
12250 3995 14831 1 149.00000 418.400000
12250 3996 12888 1 149.00000 418.400000
12251 3997 16163 1 149.00000 418.400000
12251 3998 14011 1 149.00000 418.400000
12251 3999 13904 1 149.00000 418.400000
12252 4000 14337 1 149.00000 418.400000
12252 4001 14343 1 149.00000 418.400000
12252 4002 15268 1 149.00000 418.400000
12253 4003 15546 1 149.00000 418.400000
12253 4004 15892 1 149.00000 418.400000
12254 4005 13431 1 149.00000 418.400000
12254 4006 15531 1 149.00000 418.400000
12254 4007 14280 1 149.00000 418.400000
12254 4008 14307 1 149.00000 418.400000
12255 4009 15228 1 149.00000 418.400000
11971 4010 12255 1 149.00000 418.400000
12255 4011 13828 1 149.00000 418.400000
12256 4012 13452 1 149.00000 418.400000
12256 4013 12758 1 149.00000 418.400000
18075 4014 20065 1 149.00000 418.400000
12998 4015 20065 1 149.00000 418.400000
13250 4016 20065 1 149.00000 418.400000
12257 4017 14530 1 149.00000 418.400000
12257 4018 20017 1 149.00000 418.400000
12258 4019 14418 1 149.00000 418.400000
12258 4020 14682 1 149.00000 418.400000
12258 4021 16019 1 149.00000 418.400000
12592 4022 15808 1 149.00000 418.400000
12259 4023 20761 1 149.00000 418.400000
12259 4024 12644 1 149.00000 418.400000
12259 4025 15808 1 149.00000 418.400000
12260 4026 12993 1 149.00000 418.400000
12993 4027 16020 1 149.00000 418.400000
13085 4028 23497 1 149.00000 418.400000
15944 4029 23497 1 149.00000 418.400000
11457 4030 14610 1 149.00000 418.400000
12261 4031 15562 1 149.00000 418.400000
12261 4032 22837 1 149.00000 418.400000
22117 4033 22477 1 149.00000 418.400000
13695 4034 22477 1 149.00000 418.400000
12262 4035 14239 1 149.00000 418.400000
13184 4036 15279 1 149.00000 418.400000
12262 4037 16225 1 149.00000 418.400000
12262 4038 15279 1 149.00000 418.400000
12263 4039 14954 1 149.00000 418.400000
12263 4040 13969 1 149.00000 418.400000
19201 4041 21361 1 149.00000 418.400000
15304 4042 21361 1 149.00000 418.400000
12264 4043 15148 1 149.00000 418.400000
12264 4044 12283 1 149.00000 418.400000
12264 4045 15911 1 149.00000 418.400000
12265 4046 12438 1 149.00000 418.400000
12265 4047 12944 1 149.00000 418.400000
12265 4048 13506 1 149.00000 418.400000
12266 4049 14800 1 149.00000 418.400000
12266 4050 17711 1 149.00000 418.400000
12266 4051 17781 1 149.00000 418.400000
12266 4052 14476 1 149.00000 418.400000
12267 4053 14676 1 149.00000 418.400000
12267 4054 13278 1 149.00000 418.400000
12267 4055 14504 1 149.00000 418.400000
12268 4056 13621 1 149.00000 418.400000
12268 4057 19849 1 149.00000 418.400000
12268 4058 15232 1 149.00000 418.400000
12269 4059 13455 1 149.00000 418.400000
12269 4060 21277 1 149.00000 418.400000
12269 4061 12574 1 149.00000 418.400000
12270 4062 15252 1 149.00000 418.400000
12270 4063 15368 1 149.00000 418.400000
12270 4064 13617 1 149.00000 418.400000
12270 4065 12311 1 149.00000 418.400000
12271 4066 15460 1 149.00000 418.400000
11826 4067 15460 1 149.00000 418.400000
12271 4068 14405 1 149.00000 418.400000
12272 4069 13943 1 149.00000 418.400000
12273 4070 15009 1 149.00000 418.400000
12273 4071 15092 1 149.00000 418.400000
12273 4072 12477 1 149.00000 418.400000
12273 4073 14514 1 149.00000 418.400000
12274 4074 15890 1 149.00000 418.400000
12274 4075 18805 1 149.00000 418.400000
12274 4076 24037 1 149.00000 418.400000
12275 4077 14960 1 149.00000 418.400000
12275 4078 15325 1 149.00000 418.400000
12275 4079 12713 1 149.00000 418.400000
12275 4080 15653 1 149.00000 418.400000
11653 4081 14456 1 149.00000 418.400000
12276 4082 20017 1 149.00000 418.400000
12276 4083 12457 1 149.00000 418.400000
12277 4084 13581 1 149.00000 418.400000
12277 4085 18793 1 149.00000 418.400000
12278 4086 14957 1 149.00000 418.400000
12278 4087 17557 1 149.00000 418.400000
12278 4088 14397 1 149.00000 418.400000
12279 4089 12363 1 149.00000 418.400000
12279 4090 13622 1 149.00000 418.400000
12279 4091 13368 1 149.00000 418.400000
12280 4092 13685 1 149.00000 418.400000
12280 4093 13201 1 149.00000 418.400000
12280 4094 12878 1 149.00000 418.400000
12280 4095 14721 1 149.00000 418.400000
12281 4096 13224 1 149.00000 418.400000
12281 4097 14970 1 149.00000 418.400000
12281 4098 13319 1 149.00000 418.400000
12281 4099 15084 1 149.00000 418.400000
12282 4100 13169 1 149.00000 418.400000
13169 4101 15799 1 149.00000 418.400000
23764 4102 24010 1 149.00000 418.400000
13012 4103 23764 1 149.00000 418.400000
12283 4104 13115 1 149.00000 418.400000
12283 4105 16111 1 149.00000 418.400000
12283 4106 15884 1 149.00000 418.400000
12794 4107 16120 1 149.00000 418.400000
12794 4108 20293 1 149.00000 418.400000
16221 4109 20293 1 149.00000 418.400000
15121 4110 20293 1 149.00000 418.400000
12901 4111 23848 1 149.00000 418.400000
12284 4112 12466 1 149.00000 418.400000
12284 4113 13882 1 149.00000 418.400000
12285 4114 14336 1 149.00000 418.400000
12285 4115 14563 1 149.00000 418.400000
12285 4116 16081 1 149.00000 418.400000
12285 4117 15819 1 149.00000 418.400000
12286 4118 19705 1 149.00000 418.400000
12286 4119 16151 1 149.00000 418.400000
12287 4120 16132 1 149.00000 418.400000
12287 4121 14465 1 149.00000 418.400000
12287 4122 15150 1 149.00000 418.400000
12287 4123 14015 1 149.00000 418.400000
12288 4124 15243 1 149.00000 418.400000
12288 4125 16018 1 149.00000 418.400000
12288 4126 13610 1 149.00000 418.400000
12288 4127 15661 1 149.00000 418.400000
12289 4128 13094 1 149.00000 418.400000
12289 4129 15381 1 149.00000 418.400000
12290 4130 15230 1 149.00000 418.400000
12290 4131 12940 1 149.00000 418.400000
12291 4132 14533 1 149.00000 418.400000
12291 4133 12472 1 149.00000 418.400000
12291 4134 14468 1 149.00000 418.400000
12292 4135 13581 1 149.00000 418.400000
12292 4136 13609 1 149.00000 418.400000
12292 4137 12344 1 149.00000 418.400000
12293 4138 14235 1 149.00000 418.400000
12293 4139 15616 1 149.00000 418.400000
12293 4140 14440 1 149.00000 418.400000
12294 4141 14792 1 149.00000 418.400000
12294 4142 15133 1 149.00000 418.400000
12294 4143 12359 1 149.00000 418.400000
12294 4144 12465 1 149.00000 418.400000
12295 4145 16020 1 149.00000 418.400000
12295 4146 13271 1 149.00000 418.400000
12295 4147 15073 1 149.00000 418.400000
12295 4148 14618 1 149.00000 418.400000
12296 4149 15286 1 149.00000 418.400000
12296 4150 17725 1 149.00000 418.400000
12297 4151 14747 1 149.00000 418.400000
12297 4152 13111 1 149.00000 418.400000
12297 4153 13413 1 149.00000 418.400000
12298 4154 13929 1 149.00000 418.400000
12298 4155 15538 1 149.00000 418.400000
12298 4156 13269 1 149.00000 418.400000
12298 4157 13941 1 149.00000 418.400000
12299 4158 15490 1 149.00000 418.400000
12299 4159 15459 1 149.00000 418.400000
12300 4160 15931 1 149.00000 418.400000
12300 4161 14955 1 149.00000 418.400000
12300 4162 14797 1 149.00000 418.400000
12301 4163 14613 1 149.00000 418.400000
12301 4164 13930 1 149.00000 418.400000
12301 4165 15759 1 149.00000 418.400000
12301 4166 13478 1 149.00000 418.400000
11358 4167 18901 1 149.00000 418.400000
11358 4168 16661 1 149.00000 418.400000
12302 4169 14293 1 149.00000 418.400000
12302 4170 15124 1 149.00000 418.400000
12302 4171 13577 1 149.00000 418.400000
21061 4172 24437 1 149.00000 418.400000
12303 4173 14242 1 149.00000 418.400000
12303 4174 14666 1 149.00000 418.400000
12303 4175 12308 1 149.00000 418.400000
12304 4176 15778 1 149.00000 418.400000
12304 4177 14469 1 149.00000 418.400000
12304 4178 13383 1 149.00000 418.400000
12305 4179 12430 1 149.00000 418.400000
12305 4180 15231 1 149.00000 418.400000
12305 4181 13344 1 149.00000 418.400000
12306 4182 12551 1 149.00000 418.400000
12306 4183 15273 1 149.00000 418.400000
12307 4184 23839 1 149.00000 418.400000
12307 4185 24127 1 149.00000 418.400000
12308 4186 14881 1 149.00000 418.400000
12308 4187 14732 1 149.00000 418.400000
12308 4188 15163 1 149.00000 418.400000
12309 4189 13112 1 149.00000 418.400000
12309 4190 15706 1 149.00000 418.400000
12310 4191 12544 1 149.00000 418.400000
12310 4192 13982 1 149.00000 418.400000
12310 4193 12583 1 149.00000 418.400000
12311 4194 12514 1 149.00000 418.400000
12311 4195 16032 1 149.00000 418.400000
12311 4196 13465 1 149.00000 418.400000
12312 4197 13485 1 149.00000 418.400000
12312 4198 15419 1 149.00000 418.400000
12312 4199 13411 1 149.00000 418.400000
12312 4200 15520 1 149.00000 418.400000
12313 4201 14039 1 149.00000 418.400000
12313 4202 15338 1 149.00000 418.400000
12313 4203 14880 1 149.00000 418.400000
12313 4204 15935 1 149.00000 418.400000
12314 4205 16089 1 149.00000 418.400000
12314 4206 13060 1 149.00000 418.400000
12314 4207 16577 1 149.00000 418.400000
15937 4208 17697 1 149.00000 418.400000
17697 4209 24220 1 149.00000 418.400000
12315 4210 12627 1 149.00000 418.400000
12315 4211 12916 1 149.00000 418.400000
12315 4212 13829 1 149.00000 418.400000
12316 4213 13540 1 149.00000 418.400000
12316 4214 14080 1 149.00000 418.400000
12316 4215 15931 1 149.00000 418.400000
12316 4216 21157 1 149.00000 418.400000
12317 4217 15707 1 149.00000 418.400000
12317 4218 16211 1 149.00000 418.400000
12317 4219 14107 1 149.00000 418.400000
12317 4220 13706 1 149.00000 418.400000
12318 4221 19909 1 149.00000 418.400000
12318 4222 12561 1 149.00000 418.400000
12318 4223 12952 1 149.00000 418.400000
12318 4224 23845 1 149.00000 418.400000
12319 4225 13415 1 149.00000 418.400000
12319 4226 13816 1 149.00000 418.400000
12319 4227 13289 1 149.00000 418.400000
12319 4228 13134 1 149.00000 418.400000
12320 4229 13369 1 149.00000 418.400000
12320 4230 14605 1 149.00000 418.400000
12320 4231 13449 1 149.00000 418.400000
12321 4232 12535 1 149.00000 418.400000
12321 4233 14292 1 149.00000 418.400000
12321 4234 14803 1 149.00000 418.400000
12321 4235 15317 1 149.00000 418.400000
13639 4236 16647 1 149.00000 418.400000
12322 4237 13048 1 149.00000 418.400000
12322 4238 24265 1 149.00000 418.400000
12322 4239 13060 1 149.00000 418.400000
12322 4240 15574 1 149.00000 418.400000
12323 4241 14695 1 149.00000 418.400000
12323 4242 13767 1 149.00000 418.400000
12323 4243 15644 1 149.00000 418.400000
12324 4244 12527 1 149.00000 418.400000
12324 4245 12369 1 149.00000 418.400000
12324 4246 15179 1 149.00000 418.400000
12324 4247 14555 1 149.00000 418.400000
12325 4248 15085 1 149.00000 418.400000
12325 4249 13905 1 149.00000 418.400000
12325 4250 13635 1 149.00000 418.400000
12325 4251 16032 1 149.00000 418.400000
12326 4252 14988 1 149.00000 418.400000
12326 4253 12878 1 149.00000 418.400000
12326 4254 13184 1 149.00000 418.400000
12327 4255 14837 1 149.00000 418.400000
12327 4256 14010 1 149.00000 418.400000
12327 4257 15984 1 149.00000 418.400000
12327 4258 15708 1 149.00000 418.400000
12328 4259 13353 1 149.00000 418.400000
12328 4260 13497 1 149.00000 418.400000
12328 4261 14462 1 149.00000 418.400000
12329 4262 12453 1 149.00000 418.400000
12329 4263 14679 1 149.00000 418.400000
12329 4264 16236 1 149.00000 418.400000
12329 4265 15627 1 149.00000 418.400000
12330 4266 14049 1 149.00000 418.400000
12330 4267 13066 1 149.00000 418.400000
12330 4268 15037 1 149.00000 418.400000
12330 4269 14730 1 149.00000 418.400000
12331 4270 18033 1 149.00000 418.400000
12331 4271 13596 1 149.00000 418.400000
12332 4272 12337 1 149.00000 418.400000
12332 4273 15152 1 149.00000 418.400000
12332 4274 14940 1 149.00000 418.400000
12332 4275 15013 1 149.00000 418.400000
12333 4276 14677 1 149.00000 418.400000
12333 4277 16153 1 149.00000 418.400000
12334 4278 20881 1 149.00000 418.400000
12334 4279 15558 1 149.00000 418.400000
12334 4280 13559 1 149.00000 418.400000
12334 4281 17865 1 149.00000 418.400000
12335 4282 15157 1 149.00000 418.400000
12335 4283 16121 1 149.00000 418.400000
12336 4284 14670 1 149.00000 418.400000
12385 4285 14670 1 149.00000 418.400000
12336 4286 12890 1 149.00000 418.400000
12337 4287 14648 1 149.00000 418.400000
12337 4288 12470 1 149.00000 418.400000
12337 4289 14288 1 149.00000 418.400000
12338 4290 16268 1 149.00000 418.400000
12338 4291 12787 1 149.00000 418.400000
12338 4292 18877 1 149.00000 418.400000
12338 4293 12896 1 149.00000 418.400000
12339 4294 13722 1 149.00000 418.400000
11401 4295 13583 1 149.00000 418.400000
12339 4296 14272 1 149.00000 418.400000
13126 4297 18805 1 149.00000 418.400000
15758 4298 18805 1 149.00000 418.400000
12340 4299 14146 1 149.00000 418.400000
12340 4300 16142 1 149.00000 418.400000
12340 4301 14673 1 149.00000 418.400000
12341 4302 12411 1 149.00000 418.400000
12411 4303 14622 1 149.00000 418.400000
12341 4304 17459 1 149.00000 418.400000
12342 4305 14888 1 149.00000 418.400000
12342 4306 13309 1 149.00000 418.400000
12342 4307 13358 1 149.00000 418.400000
12342 4308 15399 1 149.00000 418.400000
12343 4309 12375 1 149.00000 418.400000
12343 4310 14271 1 149.00000 418.400000
12343 4311 15270 1 149.00000 418.400000
12344 4312 12825 1 149.00000 418.400000
12344 4313 15890 1 149.00000 418.400000
12345 4314 15037 1 149.00000 418.400000
12345 4315 13771 1 149.00000 418.400000
12345 4316 15807 1 149.00000 418.400000
12346 4317 15810 1 149.00000 418.400000
12346 4318 17305 1 149.00000 418.400000
12346 4319 13489 1 149.00000 418.400000
13489 4320 16099 1 149.00000 418.400000
12347 4321 13330 1 149.00000 418.400000
12347 4322 12478 1 149.00000 418.400000
12347 4323 14489 1 149.00000 418.400000
12347 4324 13510 1 149.00000 418.400000
16283 4325 20113 1 149.00000 418.400000
16115 4326 16283 1 149.00000 418.400000
12348 4327 12634 1 149.00000 418.400000
12348 4328 14723 1 149.00000 418.400000
12348 4329 14481 1 149.00000 418.400000
12348 4330 23161 1 149.00000 418.400000
12349 4331 14711 1 149.00000 418.400000
12149 4332 12349 1 149.00000 418.400000
12349 4333 15496 1 149.00000 418.400000
12349 4334 14849 1 149.00000 418.400000
12350 4335 14167 1 149.00000 418.400000
12350 4336 13374 1 149.00000 418.400000
12350 4337 15905 1 149.00000 418.400000
23029 4338 23842 1 149.00000 418.400000
15703 4339 23029 1 149.00000 418.400000
20377 4340 23029 1 149.00000 418.400000
12351 4341 14936 1 149.00000 418.400000
12351 4342 16194 1 149.00000 418.400000
12351 4343 14553 1 149.00000 418.400000
12351 4344 14311 1 149.00000 418.400000
12352 4345 14630 1 149.00000 418.400000
12352 4346 13755 1 149.00000 418.400000
12352 4347 13985 1 149.00000 418.400000
12352 4348 15127 1 149.00000 418.400000
12353 4349 12877 1 149.00000 418.400000
12353 4350 14206 1 149.00000 418.400000
12353 4351 15140 1 149.00000 418.400000
12353 4352 14822 1 149.00000 418.400000
12354 4353 13268 1 149.00000 418.400000
12354 4354 12711 1 149.00000 418.400000
12354 4355 14512 1 149.00000 418.400000
12354 4356 14059 1 149.00000 418.400000
12355 4357 15744 1 149.00000 418.400000
12355 4358 15103 1 149.00000 418.400000
12355 4359 13150 1 149.00000 418.400000
12355 4360 15714 1 149.00000 418.400000
12356 4361 15616 1 149.00000 418.400000
12356 4362 13476 1 149.00000 418.400000
12356 4363 24115 1 149.00000 418.400000
12356 4364 12420 1 149.00000 418.400000
12357 4365 16011 1 149.00000 418.400000
12357 4366 13217 1 149.00000 418.400000
12357 4367 15249 1 149.00000 418.400000
12357 4368 12793 1 149.00000 418.400000
12358 4369 14932 1 149.00000 418.400000
12358 4370 15006 1 149.00000 418.400000
12358 4371 12403 1 149.00000 418.400000
12359 4372 15407 1 149.00000 418.400000
12359 4373 15867 1 149.00000 418.400000
13066 4374 23767 1 149.00000 418.400000
12360 4375 14113 1 149.00000 418.400000
12360 4376 13485 1 149.00000 418.400000
12361 4377 14624 1 149.00000 418.400000
12361 4378 23149 1 149.00000 418.400000
12361 4379 15461 1 149.00000 418.400000
12362 4380 15704 1 149.00000 418.400000
12362 4381 12531 1 149.00000 418.400000
12363 4382 13392 1 149.00000 418.400000
12363 4383 13356 1 149.00000 418.400000
12363 4384 16231 1 149.00000 418.400000
12364 4385 15920 1 149.00000 418.400000
12364 4386 15738 1 149.00000 418.400000
12364 4387 14718 1 149.00000 418.400000
12364 4388 14995 1 149.00000 418.400000
12365 4389 15559 1 149.00000 418.400000
12365 4390 14418 1 149.00000 418.400000
12366 4391 19825 1 149.00000 418.400000
12493 4392 19825 1 149.00000 418.400000
12366 4393 13056 1 149.00000 418.400000
12367 4394 15256 1 149.00000 418.400000
12367 4395 13843 1 149.00000 418.400000
12367 4396 14519 1 149.00000 418.400000
12367 4397 13939 1 149.00000 418.400000
15712 4398 20401 1 149.00000 418.400000
13872 4399 20401 1 149.00000 418.400000
14420 4400 20401 1 149.00000 418.400000
12368 4401 14660 1 149.00000 418.400000
12368 4402 13804 1 149.00000 418.400000
12368 4403 15512 1 149.00000 418.400000
12369 4404 15966 1 149.00000 418.400000
12369 4405 14581 1 149.00000 418.400000
12369 4406 13690 1 149.00000 418.400000
12370 4407 13408 1 149.00000 418.400000
12370 4408 14394 1 149.00000 418.400000
12370 4409 14682 1 149.00000 418.400000
12371 4410 15717 1 149.00000 418.400000
12371 4411 12994 1 149.00000 418.400000
12371 4412 13194 1 149.00000 418.400000
12372 4413 16164 1 149.00000 418.400000
12372 4414 16096 1 149.00000 418.400000
12372 4415 14565 1 149.00000 418.400000
12372 4416 15731 1 149.00000 418.400000
12373 4417 13352 1 149.00000 418.400000
12373 4418 19921 1 149.00000 418.400000
12084 4419 20545 1 149.00000 418.400000
12374 4420 12431 1 149.00000 418.400000
12374 4421 14183 1 149.00000 418.400000
12374 4422 12444 1 149.00000 418.400000
12375 4423 15846 1 149.00000 418.400000
12375 4424 14936 1 149.00000 418.400000
12376 4425 19645 1 149.00000 418.400000
12376 4426 14877 1 149.00000 418.400000
12376 4427 22981 1 149.00000 418.400000
12377 4428 14103 1 149.00000 418.400000
12377 4429 12770 1 149.00000 418.400000
12377 4430 12980 1 149.00000 418.400000
12377 4431 16277 1 149.00000 418.400000
20533 4432 23770 1 149.00000 418.400000
23770 4433 23905 1 149.00000 418.400000
14143 4434 23770 1 149.00000 418.400000
12974 4435 20365 1 149.00000 418.400000
12378 4436 13878 1 149.00000 418.400000
12378 4437 21985 1 149.00000 418.400000
12378 4438 15092 1 149.00000 418.400000
12378 4439 18613 1 149.00000 418.400000
12379 4440 14276 1 149.00000 418.400000
12379 4441 12926 1 149.00000 418.400000
12380 4442 13824 1 149.00000 418.400000
12380 4443 12888 1 149.00000 418.400000
11340 4444 12380 1 149.00000 418.400000
12380 4445 16142 1 149.00000 418.400000
12381 4446 22909 1 149.00000 418.400000
12381 4447 14992 1 149.00000 418.400000
12381 4448 16266 1 149.00000 418.400000
12381 4449 12777 1 149.00000 418.400000
12382 4450 15421 1 149.00000 418.400000
12382 4451 15022 1 149.00000 418.400000
12382 4452 16072 1 149.00000 418.400000
12383 4453 13834 1 149.00000 418.400000
12383 4454 21841 1 149.00000 418.400000
12383 4455 13266 1 149.00000 418.400000
12384 4456 14875 1 149.00000 418.400000
12384 4457 12821 1 149.00000 418.400000
12384 4458 12513 1 149.00000 418.400000
12385 4459 12685 1 149.00000 418.400000
12385 4460 13357 1 149.00000 418.400000
12386 4461 13939 1 149.00000 418.400000
12386 4462 12412 1 149.00000 418.400000
11459 4463 12386 1 149.00000 418.400000
12387 4464 12841 1 149.00000 418.400000
12387 4465 15805 1 149.00000 418.400000
12388 4466 12861 1 149.00000 418.400000
12388 4467 14142 1 149.00000 418.400000
12388 4468 13030 1 149.00000 418.400000
12389 4469 15801 1 149.00000 418.400000
12389 4470 14063 1 149.00000 418.400000
12389 4471 15089 1 149.00000 418.400000
12389 4472 14249 1 149.00000 418.400000
12390 4473 14282 1 149.00000 418.400000
12390 4474 14585 1 149.00000 418.400000
12390 4475 14196 1 149.00000 418.400000
15130 4476 21469 1 149.00000 418.400000
16239 4477 21469 1 149.00000 418.400000
15800 4478 21469 1 149.00000 418.400000
17963 4479 24157 1 149.00000 418.400000
14133 4480 15842 1 149.00000 418.400000
15842 4481 17963 1 149.00000 418.400000
12391 4482 13394 1 149.00000 418.400000
12391 4483 13537 1 149.00000 418.400000
12391 4484 14088 1 149.00000 418.400000
12391 4485 16053 1 149.00000 418.400000
12392 4486 15179 1 149.00000 418.400000
12392 4487 14867 1 149.00000 418.400000
12392 4488 13398 1 149.00000 418.400000
12392 4489 16191 1 149.00000 418.400000
12393 4490 13883 1 149.00000 418.400000
12393 4491 15832 1 149.00000 418.400000
12393 4492 12825 1 149.00000 418.400000
12393 4493 14335 1 149.00000 418.400000
12394 4494 18469 1 149.00000 418.400000
14338 4495 15653 1 149.00000 418.400000
12394 4496 14338 1 149.00000 418.400000
12394 4497 24211 1 149.00000 418.400000
12395 4498 13208 1 149.00000 418.400000
12395 4499 12905 1 149.00000 418.400000
12395 4500 15251 1 149.00000 418.400000
12396 4501 21505 1 149.00000 418.400000
12396 4502 16181 1 149.00000 418.400000
12396 4503 16122 1 149.00000 418.400000
12397 4504 15669 1 149.00000 418.400000
12397 4505 15809 1 149.00000 418.400000
12397 4506 14714 1 149.00000 418.400000
12398 4507 15879 1 149.00000 418.400000
12398 4508 16094 1 149.00000 418.400000
14445 4509 24347 1 149.00000 418.400000
22573 4510 24347 1 149.00000 418.400000
12978 4511 23773 1 149.00000 418.400000
13773 4512 23773 1 149.00000 418.400000
19165 4513 23773 1 149.00000 418.400000
13248 4514 18433 1 149.00000 418.400000
21769 4515 23776 1 149.00000 418.400000
23776 4516 23965 1 149.00000 418.400000
23776 4517 24256 1 149.00000 418.400000
12399 4518 15362 1 149.00000 418.400000
12399 4519 20533 1 149.00000 418.400000
12399 4520 16145 1 149.00000 418.400000
12399 4521 12611 1 149.00000 418.400000
12400 4522 14694 1 149.00000 418.400000
12400 4523 14943 1 149.00000 418.400000
12401 4524 15139 1 149.00000 418.400000
12401 4525 13983 1 149.00000 418.400000
12402 4526 13144 1 149.00000 418.400000
12402 4527 15438 1 149.00000 418.400000
11512 4528 12402 1 149.00000 418.400000
12402 4529 15545 1 149.00000 418.400000
22081 4530 24280 1 149.00000 418.400000
12403 4531 16045 1 149.00000 418.400000
12403 4532 16113 1 149.00000 418.400000
11811 4533 12403 1 149.00000 418.400000
15062 4534 20173 1 149.00000 418.400000
14070 4535 20173 1 149.00000 418.400000
12404 4536 14883 1 149.00000 418.400000
12404 4537 14765 1 149.00000 418.400000
12404 4538 15835 1 149.00000 418.400000
14579 4539 24352 1 149.00000 418.400000
12405 4540 14347 1 149.00000 418.400000
12405 4541 15544 1 149.00000 418.400000
12405 4542 14813 1 149.00000 418.400000
12406 4543 13725 1 149.00000 418.400000
12406 4544 13782 1 149.00000 418.400000
12406 4545 12556 1 149.00000 418.400000
12407 4546 14030 1 149.00000 418.400000
12407 4547 13033 1 149.00000 418.400000
12407 4548 13980 1 149.00000 418.400000
12407 4549 16058 1 149.00000 418.400000
12408 4550 15359 1 149.00000 418.400000
12408 4551 14194 1 149.00000 418.400000
12408 4552 14958 1 149.00000 418.400000
19573 4553 24034 1 149.00000 418.400000
12409 4554 18961 1 149.00000 418.400000
12409 4555 16071 1 149.00000 418.400000
12409 4556 24034 1 149.00000 418.400000
12410 4557 12461 1 149.00000 418.400000
12410 4558 15836 1 149.00000 418.400000
12410 4559 13646 1 149.00000 418.400000
12341 4560 16156 1 149.00000 418.400000
12411 4561 16171 1 149.00000 418.400000
12411 4562 14523 1 149.00000 418.400000
12412 4563 13933 1 149.00000 418.400000
12412 4564 13067 1 149.00000 418.400000
12413 4565 15346 1 149.00000 418.400000
12413 4566 15170 1 149.00000 418.400000
12414 4567 15231 1 149.00000 418.400000
12415 4568 14016 1 149.00000 418.400000
12415 4569 13102 1 149.00000 418.400000
12415 4570 16223 1 149.00000 418.400000
12415 4571 12548 1 149.00000 418.400000
12416 4572 14736 1 149.00000 418.400000
12416 4573 15424 1 149.00000 418.400000
12416 4574 14814 1 149.00000 418.400000
12417 4575 14938 1 149.00000 418.400000
12417 4576 18433 1 149.00000 418.400000
12417 4577 20545 1 149.00000 418.400000
12417 4578 12919 1 149.00000 418.400000
12418 4579 13336 1 149.00000 418.400000
12418 4580 15045 1 149.00000 418.400000
12418 4581 14399 1 149.00000 418.400000
12418 4582 15173 1 149.00000 418.400000
12419 4583 13075 1 149.00000 418.400000
13075 4584 15104 1 149.00000 418.400000
12420 4585 15757 1 149.00000 418.400000
14434 4586 18577 1 149.00000 418.400000
17123 4587 18577 1 149.00000 418.400000
14174 4588 18577 1 149.00000 418.400000
15079 4589 23824 1 149.00000 418.400000
12851 4590 15079 1 149.00000 418.400000
12421 4591 15079 1 149.00000 418.400000
13495 4592 15079 1 149.00000 418.400000
14421 4593 14847 1 149.00000 418.400000
12422 4594 14692 1 149.00000 418.400000
12422 4595 14847 1 149.00000 418.400000
12423 4596 12726 1 149.00000 418.400000
12423 4597 15290 1 149.00000 418.400000
12423 4598 15213 1 149.00000 418.400000
12424 4599 13640 1 149.00000 418.400000
12424 4600 12529 1 149.00000 418.400000
12424 4601 14938 1 149.00000 418.400000
12424 4602 14915 1 149.00000 418.400000
15907 4603 20641 1 149.00000 418.400000
20341 4604 20641 1 149.00000 418.400000
12425 4605 15660 1 149.00000 418.400000
12425 4606 12473 1 149.00000 418.400000
15956 4607 19357 1 149.00000 418.400000
15211 4608 19357 1 149.00000 418.400000
12426 4609 13158 1 149.00000 418.400000
12426 4610 15122 1 149.00000 418.400000
12426 4611 15397 1 149.00000 418.400000
12426 4612 15437 1 149.00000 418.400000
12427 4613 15655 1 149.00000 418.400000
12427 4614 13975 1 149.00000 418.400000
12427 4615 14646 1 149.00000 418.400000
12427 4616 15126 1 149.00000 418.400000
12428 4617 23137 1 149.00000 418.400000
12428 4618 14625 1 149.00000 418.400000
12428 4619 15173 1 149.00000 418.400000
12429 4620 15479 1 149.00000 418.400000
12429 4621 13244 1 149.00000 418.400000
12429 4622 14177 1 149.00000 418.400000
19789 4623 19921 1 149.00000 418.400000
11368 4624 19921 1 149.00000 418.400000
12305 4625 14126 1 149.00000 418.400000
12430 4626 14516 1 149.00000 418.400000
12430 4627 12863 1 149.00000 418.400000
12431 4628 14981 1 149.00000 418.400000
12431 4629 13562 1 149.00000 418.400000
12432 4630 13190 1 149.00000 418.400000
12432 4631 14962 1 149.00000 418.400000
12432 4632 12909 1 149.00000 418.400000
12432 4633 14344 1 149.00000 418.400000
12433 4634 13567 1 149.00000 418.400000
12433 4635 15493 1 149.00000 418.400000
20713 4636 23779 1 149.00000 418.400000
13261 4637 23779 1 149.00000 418.400000
12771 4638 23779 1 149.00000 418.400000
11374 4639 16039 1 149.00000 418.400000
11374 4640 13648 1 149.00000 418.400000
12435 4641 15814 1 149.00000 418.400000
12435 4642 15067 1 149.00000 418.400000
12435 4643 14694 1 149.00000 418.400000
12435 4644 13300 1 149.00000 418.400000
12436 4645 23461 1 149.00000 418.400000
12436 4646 15664 1 149.00000 418.400000
12436 4647 16247 1 149.00000 418.400000
12437 4648 21565 1 149.00000 418.400000
12437 4649 12450 1 149.00000 418.400000
12437 4650 21205 1 149.00000 418.400000
12438 4651 15838 1 149.00000 418.400000
12438 4652 16099 1 149.00000 418.400000
12438 4653 12843 1 149.00000 418.400000
12439 4654 12632 1 149.00000 418.400000
12439 4655 13800 1 149.00000 418.400000
12439 4656 13057 1 149.00000 418.400000
12439 4657 15450 1 149.00000 418.400000
12440 4658 13449 1 149.00000 418.400000
12440 4659 14871 1 149.00000 418.400000
12441 4660 16224 1 149.00000 418.400000
12441 4661 16267 1 149.00000 418.400000
12441 4662 15576 1 149.00000 418.400000
12441 4663 12852 1 149.00000 418.400000
12442 4664 13613 1 149.00000 418.400000
12442 4665 15344 1 149.00000 418.400000
12442 4666 15111 1 149.00000 418.400000
12443 4667 16185 1 149.00000 418.400000
12443 4668 15946 1 149.00000 418.400000
12443 4669 15140 1 149.00000 418.400000
12443 4670 12785 1 149.00000 418.400000
12444 4671 14590 1 149.00000 418.400000
12444 4672 14090 1 149.00000 418.400000
12444 4673 15416 1 149.00000 418.400000
12445 4674 22213 1 149.00000 418.400000
12445 4675 13360 1 149.00000 418.400000
13686 4676 15031 1 149.00000 418.400000
12445 4677 15031 1 149.00000 418.400000
12446 4678 12656 1 149.00000 418.400000
12446 4679 13345 1 149.00000 418.400000
12446 4680 15890 1 149.00000 418.400000
12446 4681 15883 1 149.00000 418.400000
12447 4682 15986 1 149.00000 418.400000
12447 4683 16059 1 149.00000 418.400000
12448 4684 13965 1 149.00000 418.400000
12448 4685 12898 1 149.00000 418.400000
12448 4686 14116 1 149.00000 418.400000
12448 4687 12857 1 149.00000 418.400000
12449 4688 21349 1 149.00000 418.400000
12449 4689 24043 1 149.00000 418.400000
12449 4690 12552 1 149.00000 418.400000
19225 4691 23782 1 149.00000 418.400000
20521 4692 23782 1 149.00000 418.400000
14712 4693 23782 1 149.00000 418.400000
12450 4694 15505 1 149.00000 418.400000
12450 4695 15812 1 149.00000 418.400000
12451 4696 13043 1 149.00000 418.400000
12451 4697 15533 1 149.00000 418.400000
12452 4698 14899 1 149.00000 418.400000
12452 4699 15178 1 149.00000 418.400000
13726 4700 21565 1 149.00000 418.400000
16927 4701 21565 1 149.00000 418.400000
12453 4702 15250 1 149.00000 418.400000
12453 4703 13062 1 149.00000 418.400000
12453 4704 13928 1 149.00000 418.400000
12454 4705 13561 1 149.00000 418.400000
12454 4706 14900 1 149.00000 418.400000
12454 4707 20137 1 149.00000 418.400000
12455 4708 13569 1 149.00000 418.400000
12455 4709 18841 1 149.00000 418.400000
12455 4710 14779 1 149.00000 418.400000
12456 4711 14360 1 149.00000 418.400000
12456 4712 13834 1 149.00000 418.400000
12456 4713 12471 1 149.00000 418.400000
12456 4714 14754 1 149.00000 418.400000
12457 4715 12857 1 149.00000 418.400000
12457 4716 14187 1 149.00000 418.400000
12458 4717 12957 1 149.00000 418.400000
12458 4718 15987 1 149.00000 418.400000
12458 4719 15307 1 149.00000 418.400000
12458 4720 13597 1 149.00000 418.400000
12459 4721 13247 1 149.00000 418.400000
12459 4722 12503 1 149.00000 418.400000
12459 4723 12468 1 149.00000 418.400000
12459 4724 13395 1 149.00000 418.400000
12460 4725 15821 1 149.00000 418.400000
12460 4726 16146 1 149.00000 418.400000
12460 4727 15615 1 149.00000 418.400000
12460 4728 14566 1 149.00000 418.400000
12461 4729 13049 1 149.00000 418.400000
12461 4730 12976 1 149.00000 418.400000
12461 4731 13929 1 149.00000 418.400000
12462 4732 14040 1 149.00000 418.400000
12462 4733 19321 1 149.00000 418.400000
12462 4734 12569 1 149.00000 418.400000
12462 4735 20101 1 149.00000 418.400000
13849 4736 23785 1 149.00000 418.400000
23785 4737 23959 1 149.00000 418.400000
12463 4738 24046 1 149.00000 418.400000
12463 4739 15364 1 149.00000 418.400000
12463 4740 15841 1 149.00000 418.400000
12463 4741 13011 1 149.00000 418.400000
12464 4742 13907 1 149.00000 418.400000
12464 4743 13674 1 149.00000 418.400000
12464 4744 12518 1 149.00000 418.400000
12465 4745 15856 1 149.00000 418.400000
12465 4746 12893 1 149.00000 418.400000
12466 4747 14205 1 149.00000 418.400000
12466 4748 15886 1 149.00000 418.400000
12466 4749 15177 1 149.00000 418.400000
12467 4750 12685 1 149.00000 418.400000
12467 4751 13429 1 149.00000 418.400000
12468 4752 13423 1 149.00000 418.400000
12468 4753 14860 1 149.00000 418.400000
12468 4754 15772 1 149.00000 418.400000
13711 4755 15772 1 149.00000 418.400000
12469 4756 12676 1 149.00000 418.400000
12469 4757 15717 1 149.00000 418.400000
12469 4758 14363 1 149.00000 418.400000
12470 4759 15684 1 149.00000 418.400000
13643 4760 14089 1 149.00000 418.400000
12470 4761 14089 1 149.00000 418.400000
12471 4762 13445 1 149.00000 418.400000
12471 4763 15813 1 149.00000 418.400000
12471 4764 12729 1 149.00000 418.400000
12472 4765 14764 1 149.00000 418.400000
12473 4766 14865 1 149.00000 418.400000
12473 4767 15083 1 149.00000 418.400000
12473 4768 15109 1 149.00000 418.400000
12474 4769 13864 1 149.00000 418.400000
12474 4770 14072 1 149.00000 418.400000
18361 4771 21529 1 149.00000 418.400000
13751 4772 18361 1 149.00000 418.400000
12475 4773 23329 1 149.00000 418.400000
12475 4774 12695 1 149.00000 418.400000
12475 4775 12923 1 149.00000 418.400000
12475 4776 24061 1 149.00000 418.400000
12476 4777 23884 1 149.00000 418.400000
12476 4778 13093 1 149.00000 418.400000
12476 4779 18637 1 149.00000 418.400000
12476 4780 12523 1 149.00000 418.400000
12477 4781 15414 1 149.00000 418.400000
12477 4782 14966 1 149.00000 418.400000
13518 4783 15414 1 149.00000 418.400000
12478 4784 15817 1 149.00000 418.400000
12478 4785 18385 1 149.00000 418.400000
12479 4786 16044 1 149.00000 418.400000
12479 4787 12735 1 149.00000 418.400000
12479 4788 14167 1 149.00000 418.400000
12201 4789 23788 1 149.00000 418.400000
22009 4790 22129 1 149.00000 418.400000
13378 4791 22009 1 149.00000 418.400000
22009 4792 23794 1 149.00000 418.400000
12480 4793 13622 1 149.00000 418.400000
12480 4794 13005 1 149.00000 418.400000
18565 4795 24357 1 149.00000 418.400000
12481 4796 14752 1 149.00000 418.400000
12481 4797 13503 1 149.00000 418.400000
12481 4798 15070 1 149.00000 418.400000
12481 4799 14615 1 149.00000 418.400000
15789 4800 19501 1 149.00000 418.400000
12482 4801 12893 1 149.00000 418.400000
12893 4802 15932 1 149.00000 418.400000
12482 4803 14752 1 149.00000 418.400000
12483 4804 15595 1 149.00000 418.400000
12483 4805 14550 1 149.00000 418.400000
11920 4806 12809 1 149.00000 418.400000
13359 4807 22057 1 149.00000 418.400000
14428 4808 22057 1 149.00000 418.400000
22057 4809 24118 1 149.00000 418.400000
13688 4810 23791 1 149.00000 418.400000
13688 4811 16549 1 149.00000 418.400000
15121 4812 23791 1 149.00000 418.400000
14487 4813 21085 1 149.00000 418.400000
21085 4814 22165 1 149.00000 418.400000
14986 4815 17207 1 149.00000 418.400000
14513 4816 17207 1 149.00000 418.400000
19417 4817 22837 1 149.00000 418.400000
12484 4818 15634 1 149.00000 418.400000
12484 4819 13265 1 149.00000 418.400000
12484 4820 15096 1 149.00000 418.400000
12485 4821 12594 1 149.00000 418.400000
12485 4822 13715 1 149.00000 418.400000
12485 4823 13808 1 149.00000 418.400000
12485 4824 14737 1 149.00000 418.400000
15550 4825 19885 1 149.00000 418.400000
15515 4826 19885 1 149.00000 418.400000
14152 4827 19885 1 149.00000 418.400000
12486 4828 13783 1 149.00000 418.400000
12486 4829 12775 1 149.00000 418.400000
12486 4830 15232 1 149.00000 418.400000
12487 4831 16008 1 149.00000 418.400000
12487 4832 14565 1 149.00000 418.400000
12487 4833 15434 1 149.00000 418.400000
12487 4834 12800 1 149.00000 418.400000
12488 4835 14687 1 149.00000 418.400000
12488 4836 16238 1 149.00000 418.400000
12488 4837 13074 1 149.00000 418.400000
12489 4838 13683 1 149.00000 418.400000
12489 4839 13068 1 149.00000 418.400000
12489 4840 14618 1 149.00000 418.400000
12490 4841 13640 1 149.00000 418.400000
12490 4842 14611 1 149.00000 418.400000
12490 4843 14276 1 149.00000 418.400000
12490 4844 12972 1 149.00000 418.400000
12491 4845 12875 1 149.00000 418.400000
12491 4846 13491 1 149.00000 418.400000
12491 4847 14531 1 149.00000 418.400000
15610 4848 20305 1 149.00000 418.400000
15610 4849 17585 1 149.00000 418.400000
12492 4850 14345 1 149.00000 418.400000
12492 4851 13763 1 149.00000 418.400000
12492 4852 15724 1 149.00000 418.400000
12493 4853 21985 1 149.00000 418.400000
12493 4854 14199 1 149.00000 418.400000
12493 4855 14667 1 149.00000 418.400000
12494 4856 15658 1 149.00000 418.400000
12494 4857 15566 1 149.00000 418.400000
12495 4858 15871 1 149.00000 418.400000
12495 4859 13136 1 149.00000 418.400000
11942 4860 14550 1 149.00000 418.400000
13059 4861 17095 1 149.00000 418.400000
12974 4862 17095 1 149.00000 418.400000
12496 4863 15676 1 149.00000 418.400000
12496 4864 15952 1 149.00000 418.400000
12496 4865 14375 1 149.00000 418.400000
12496 4866 16276 1 149.00000 418.400000
12497 4867 14669 1 149.00000 418.400000
12497 4868 14944 1 149.00000 418.400000
12497 4869 14928 1 149.00000 418.400000
19033 4870 23341 1 149.00000 418.400000
14628 4871 19033 1 149.00000 418.400000
12498 4872 14763 1 149.00000 418.400000
12499 4873 13513 1 149.00000 418.400000
12499 4874 14767 1 149.00000 418.400000
12499 4875 14069 1 149.00000 418.400000
12500 4876 12550 1 149.00000 418.400000
12500 4877 15299 1 149.00000 418.400000
12500 4878 13223 1 149.00000 418.400000
12501 4879 15480 1 149.00000 418.400000
12502 4880 13355 1 149.00000 418.400000
12502 4881 15976 1 149.00000 418.400000
12502 4882 13325 1 149.00000 418.400000
12503 4883 13509 1 149.00000 418.400000
12503 4884 13601 1 149.00000 418.400000
12503 4885 14391 1 149.00000 418.400000
14703 4886 17235 1 149.00000 418.400000
12504 4887 16243 1 149.00000 418.400000
12504 4888 12832 1 149.00000 418.400000
12504 4889 15658 1 149.00000 418.400000
12504 4890 14629 1 149.00000 418.400000
12505 4891 12675 1 149.00000 418.400000
12505 4892 14187 1 149.00000 418.400000
12505 4893 14116 1 149.00000 418.400000
13988 4894 24362 1 149.00000 418.400000
13153 4895 23797 1 149.00000 418.400000
23797 4896 23971 1 149.00000 418.400000
12506 4897 15186 1 149.00000 418.400000
12506 4898 13627 1 149.00000 418.400000
13962 4899 15733 1 149.00000 418.400000
13962 4900 23800 1 149.00000 418.400000
12640 4901 23800 1 149.00000 418.400000
12507 4902 12980 1 149.00000 418.400000
12507 4903 14743 1 149.00000 418.400000
12507 4904 14092 1 149.00000 418.400000
12507 4905 13050 1 149.00000 418.400000
12508 4906 13842 1 149.00000 418.400000
12508 4907 13551 1 149.00000 418.400000
12508 4908 12971 1 149.00000 418.400000
12508 4909 15115 1 149.00000 418.400000
12509 4910 16039 1 149.00000 418.400000
12509 4911 15999 1 149.00000 418.400000
12509 4912 13172 1 149.00000 418.400000
12509 4913 14565 1 149.00000 418.400000
12510 4914 14814 1 149.00000 418.400000
12510 4915 13409 1 149.00000 418.400000
12510 4916 16036 1 149.00000 418.400000
12510 4917 15183 1 149.00000 418.400000
12511 4918 13999 1 149.00000 418.400000
12511 4919 15033 1 149.00000 418.400000
12511 4920 13312 1 149.00000 418.400000
12511 4921 15251 1 149.00000 418.400000
13173 4922 16801 1 149.00000 418.400000
12512 4923 14872 1 149.00000 418.400000
12512 4924 12648 1 149.00000 418.400000
12512 4925 14275 1 149.00000 418.400000
12513 4926 13505 1 149.00000 418.400000
12513 4927 12710 1 149.00000 418.400000
12513 4928 12751 1 149.00000 418.400000
19777 4929 23137 1 149.00000 418.400000
20881 4930 23137 1 149.00000 418.400000
12514 4931 16140 1 149.00000 418.400000
13954 4932 23803 1 149.00000 418.400000
12515 4933 13492 1 149.00000 418.400000
12515 4934 14547 1 149.00000 418.400000
12515 4935 14266 1 149.00000 418.400000
12515 4936 15648 1 149.00000 418.400000
14720 4937 23881 1 149.00000 418.400000
19897 4938 22957 1 149.00000 418.400000
14720 4939 22957 1 149.00000 418.400000
15624 4940 15910 1 149.00000 418.400000
12516 4941 12873 1 149.00000 418.400000
12516 4942 15910 1 149.00000 418.400000
12516 4943 14477 1 149.00000 418.400000
12517 4944 15381 1 149.00000 418.400000
12517 4945 13884 1 149.00000 418.400000
12517 4946 14670 1 149.00000 418.400000
12518 4947 12840 1 149.00000 418.400000
12518 4948 15999 1 149.00000 418.400000
12518 4949 13119 1 149.00000 418.400000
12519 4950 15282 1 149.00000 418.400000
12519 4951 15243 1 149.00000 418.400000
12519 4952 24091 1 149.00000 418.400000
12519 4953 15060 1 149.00000 418.400000
12520 4954 14879 1 149.00000 418.400000
12520 4955 20953 1 149.00000 418.400000
12520 4956 23818 1 149.00000 418.400000
12521 4957 15273 1 149.00000 418.400000
12521 4958 14840 1 149.00000 418.400000
12521 4959 13375 1 149.00000 418.400000
12521 4960 14006 1 149.00000 418.400000
15840 4961 21841 1 149.00000 418.400000
12522 4962 14236 1 149.00000 418.400000
12522 4963 18913 1 149.00000 418.400000
12523 4964 13961 1 149.00000 418.400000
12523 4965 15644 1 149.00000 418.400000
12523 4966 14751 1 149.00000 418.400000
12524 4967 15650 1 149.00000 418.400000
12524 4968 15455 1 149.00000 418.400000
12525 4969 15921 1 149.00000 418.400000
12525 4970 15793 1 149.00000 418.400000
12525 4971 17081 1 149.00000 418.400000
12526 4972 15028 1 149.00000 418.400000
12526 4973 12940 1 149.00000 418.400000
12526 4974 14019 1 149.00000 418.400000
12526 4975 14902 1 149.00000 418.400000
12527 4976 16054 1 149.00000 418.400000
12527 4977 16167 1 149.00000 418.400000
12527 4978 16024 1 149.00000 418.400000
12528 4979 15467 1 149.00000 418.400000
12528 4980 13976 1 149.00000 418.400000
18117 4981 24367 1 149.00000 418.400000
13256 4982 24367 1 149.00000 418.400000
12529 4983 14601 1 149.00000 418.400000
12529 4984 13875 1 149.00000 418.400000
12529 4985 13331 1 149.00000 418.400000
12530 4986 13264 1 149.00000 418.400000
12530 4987 13309 1 149.00000 418.400000
12530 4988 15871 1 149.00000 418.400000
12531 4989 14088 1 149.00000 418.400000
15721 4990 22609 1 149.00000 418.400000
21421 4991 22609 1 149.00000 418.400000
12532 4992 15998 1 149.00000 418.400000
12532 4993 13787 1 149.00000 418.400000
12533 4994 21397 1 149.00000 418.400000
12533 4995 13130 1 149.00000 418.400000
14316 4996 23185 1 149.00000 418.400000
12566 4997 23185 1 149.00000 418.400000
12534 4998 13724 1 149.00000 418.400000
12534 4999 14147 1 149.00000 418.400000
12534 5000 23869 1 149.00000 418.400000
12534 5001 17487 1 149.00000 418.400000
12535 5002 13516 1 149.00000 418.400000
12535 5003 14990 1 149.00000 418.400000
12535 5004 13264 1 149.00000 418.400000
12536 5005 13949 1 149.00000 418.400000
12536 5006 13682 1 149.00000 418.400000
12536 5007 12982 1 149.00000 418.400000
12537 5008 12591 1 149.00000 418.400000
12537 5009 14326 1 149.00000 418.400000
12538 5010 13490 1 149.00000 418.400000
13490 5011 14994 1 149.00000 418.400000
15992 5012 16084 1 149.00000 418.400000
12538 5013 15992 1 149.00000 418.400000
12539 5014 14010 1 149.00000 418.400000
12539 5015 16097 1 149.00000 418.400000
12539 5016 14970 1 149.00000 418.400000
12539 5017 14704 1 149.00000 418.400000
12540 5018 12836 1 149.00000 418.400000
12540 5019 18745 1 149.00000 418.400000
12540 5020 23401 1 149.00000 418.400000
12541 5021 14756 1 149.00000 418.400000
12542 5022 15080 1 149.00000 418.400000
12542 5023 13584 1 149.00000 418.400000
12542 5024 16193 1 149.00000 418.400000
12542 5025 12984 1 149.00000 418.400000
12543 5026 14257 1 149.00000 418.400000
12543 5027 12975 1 149.00000 418.400000
13456 5028 13891 1 149.00000 418.400000
12544 5029 13456 1 149.00000 418.400000
17991 5030 21589 1 149.00000 418.400000
13400 5031 21589 1 149.00000 418.400000
12545 5032 14634 1 149.00000 418.400000
12545 5033 13382 1 149.00000 418.400000
12545 5034 13701 1 149.00000 418.400000
12545 5035 14160 1 149.00000 418.400000
12546 5036 15350 1 149.00000 418.400000
12546 5037 14079 1 149.00000 418.400000
14848 5038 16633 1 149.00000 418.400000
12547 5039 23914 1 149.00000 418.400000
12547 5040 13807 1 149.00000 418.400000
12547 5041 22525 1 149.00000 418.400000
12547 5042 14110 1 149.00000 418.400000
16941 5043 24259 1 149.00000 418.400000
14701 5044 16941 1 149.00000 418.400000
12548 5045 15966 1 149.00000 418.400000
12548 5046 13742 1 149.00000 418.400000
12548 5047 13451 1 149.00000 418.400000
12549 5048 15236 1 149.00000 418.400000
15547 5049 16226 1 149.00000 418.400000
12549 5050 16226 1 149.00000 418.400000
12549 5051 13106 1 149.00000 418.400000
12550 5052 13538 1 149.00000 418.400000
12550 5053 13997 1 149.00000 418.400000
18103 5054 19441 1 149.00000 418.400000
13364 5055 19441 1 149.00000 418.400000
12551 5056 13297 1 149.00000 418.400000
12551 5057 16014 1 149.00000 418.400000
12551 5058 15727 1 149.00000 418.400000
15053 5059 16015 1 149.00000 418.400000
12552 5060 15202 1 149.00000 418.400000
12552 5061 15053 1 149.00000 418.400000
12553 5062 12799 1 149.00000 418.400000
12553 5063 12720 1 149.00000 418.400000
12553 5064 15914 1 149.00000 418.400000
12554 5065 14384 1 149.00000 418.400000
12554 5066 13795 1 149.00000 418.400000
12554 5067 12981 1 149.00000 418.400000
12555 5068 13811 1 149.00000 418.400000
12555 5069 19237 1 149.00000 418.400000
12555 5070 13974 1 149.00000 418.400000
12556 5071 16279 1 149.00000 418.400000
12556 5072 15577 1 149.00000 418.400000
12556 5073 13230 1 149.00000 418.400000
12557 5074 13712 1 149.00000 418.400000
12557 5075 15230 1 149.00000 418.400000
12557 5076 14160 1 149.00000 418.400000
12557 5077 15223 1 149.00000 418.400000
12558 5078 14074 1 149.00000 418.400000
12558 5079 14318 1 149.00000 418.400000
12558 5080 15732 1 149.00000 418.400000
12559 5081 16262 1 149.00000 418.400000
12559 5082 15439 1 149.00000 418.400000
12560 5083 13992 1 149.00000 418.400000
12560 5084 13983 1 149.00000 418.400000
12561 5085 15203 1 149.00000 418.400000
12561 5086 13420 1 149.00000 418.400000
12561 5087 14713 1 149.00000 418.400000
12562 5088 13187 1 149.00000 418.400000
12562 5089 15633 1 149.00000 418.400000
12562 5090 15255 1 149.00000 418.400000
12562 5091 16969 1 149.00000 418.400000
12563 5092 24220 1 149.00000 418.400000
12563 5093 22801 1 149.00000 418.400000
12563 5094 13566 1 149.00000 418.400000
12563 5095 23935 1 149.00000 418.400000
12564 5096 15737 1 149.00000 418.400000
12564 5097 14119 1 149.00000 418.400000
12564 5098 14179 1 149.00000 418.400000
12564 5099 14453 1 149.00000 418.400000
12565 5100 15736 1 149.00000 418.400000
12565 5101 13839 1 149.00000 418.400000
12565 5102 14442 1 149.00000 418.400000
12565 5103 16064 1 149.00000 418.400000
12985 5104 18841 1 149.00000 418.400000
18841 5105 19345 1 149.00000 418.400000
12566 5106 16267 1 149.00000 418.400000
11711 5107 12566 1 149.00000 418.400000
12567 5108 15131 1 149.00000 418.400000
12567 5109 14753 1 149.00000 418.400000
12567 5110 13922 1 149.00000 418.400000
12567 5111 15239 1 149.00000 418.400000
12568 5112 12849 1 149.00000 418.400000
12568 5113 12956 1 149.00000 418.400000
12568 5114 13398 1 149.00000 418.400000
12956 5115 13451 1 149.00000 418.400000
12569 5116 15909 1 149.00000 418.400000
12569 5117 16255 1 149.00000 418.400000
12570 5118 14957 1 149.00000 418.400000
12570 5119 14866 1 149.00000 418.400000
12570 5120 13581 1 149.00000 418.400000
12570 5121 13511 1 149.00000 418.400000
12571 5122 14299 1 149.00000 418.400000
12571 5123 12572 1 149.00000 418.400000
12571 5124 12658 1 149.00000 418.400000
12572 5125 14173 1 149.00000 418.400000
12572 5126 15982 1 149.00000 418.400000
12573 5127 14281 1 149.00000 418.400000
12573 5128 15188 1 149.00000 418.400000
12573 5129 15722 1 149.00000 418.400000
20917 5130 24031 1 149.00000 418.400000
13778 5131 20917 1 149.00000 418.400000
13054 5132 20917 1 149.00000 418.400000
12574 5133 16913 1 149.00000 418.400000
12574 5134 23806 1 149.00000 418.400000
14404 5135 19861 1 149.00000 418.400000
13222 5136 19861 1 149.00000 418.400000
12575 5137 14907 1 149.00000 418.400000
11769 5138 12575 1 149.00000 418.400000
12575 5139 15263 1 149.00000 418.400000
12575 5140 13576 1 149.00000 418.400000
16717 5141 21445 1 149.00000 418.400000
20713 5142 21445 1 149.00000 418.400000
15003 5143 21445 1 149.00000 418.400000
12576 5144 13522 1 149.00000 418.400000
12576 5145 15354 1 149.00000 418.400000
12576 5146 13266 1 149.00000 418.400000
12576 5147 14754 1 149.00000 418.400000
12577 5148 14945 1 149.00000 418.400000
12577 5149 13628 1 149.00000 418.400000
12577 5150 14034 1 149.00000 418.400000
12578 5151 13688 1 149.00000 418.400000
12578 5152 14431 1 149.00000 418.400000
12578 5153 15418 1 149.00000 418.400000
12579 5154 14001 1 149.00000 418.400000
12579 5155 12640 1 149.00000 418.400000
12579 5156 12691 1 149.00000 418.400000
11271 5157 12580 1 149.00000 418.400000
12580 5158 12632 1 149.00000 418.400000
12580 5159 12905 1 149.00000 418.400000
12580 5160 13989 1 149.00000 418.400000
11532 5161 16088 1 149.00000 418.400000
12581 5162 16088 1 149.00000 418.400000
12582 5163 13173 1 149.00000 418.400000
12582 5164 14697 1 149.00000 418.400000
12583 5165 15259 1 149.00000 418.400000
12583 5166 12946 1 149.00000 418.400000
12584 5167 15960 1 149.00000 418.400000
12584 5168 16165 1 149.00000 418.400000
12585 5169 14312 1 149.00000 418.400000
12585 5170 15383 1 149.00000 418.400000
12586 5171 23809 1 149.00000 418.400000
18145 5172 23830 1 149.00000 418.400000
18005 5173 23449 1 149.00000 418.400000
15108 5174 23449 1 149.00000 418.400000
12587 5175 13254 1 149.00000 418.400000
12587 5176 15400 1 149.00000 418.400000
12587 5177 15638 1 149.00000 418.400000
12587 5178 23635 1 149.00000 418.400000
12588 5179 14685 1 149.00000 418.400000
12588 5180 14979 1 149.00000 418.400000
12588 5181 12651 1 149.00000 418.400000
12589 5182 23983 1 149.00000 418.400000
12589 5183 21145 1 149.00000 418.400000
12589 5184 14996 1 149.00000 418.400000
12590 5185 15189 1 149.00000 418.400000
12590 5186 15916 1 149.00000 418.400000
12590 5187 13312 1 149.00000 418.400000
21121 5188 21793 1 149.00000 418.400000
14975 5189 21793 1 149.00000 418.400000
12591 5190 15501 1 149.00000 418.400000
12592 5191 13714 1 149.00000 418.400000
12592 5192 13846 1 149.00000 418.400000
12592 5193 13497 1 149.00000 418.400000
12593 5194 14605 1 149.00000 418.400000
12593 5195 15868 1 149.00000 418.400000
12593 5196 13700 1 149.00000 418.400000
11571 5197 12594 1 149.00000 418.400000
12594 5198 16092 1 149.00000 418.400000
12594 5199 13467 1 149.00000 418.400000
12595 5200 16232 1 149.00000 418.400000
12595 5201 13165 1 149.00000 418.400000
12595 5202 13136 1 149.00000 418.400000
12596 5203 13893 1 149.00000 418.400000
11584 5204 12596 1 149.00000 418.400000
12596 5205 12744 1 149.00000 418.400000
12597 5206 13960 1 149.00000 418.400000
13276 5207 13960 1 149.00000 418.400000
12597 5208 13981 1 149.00000 418.400000
12597 5209 15447 1 149.00000 418.400000
12598 5210 13543 1 149.00000 418.400000
12598 5211 14502 1 149.00000 418.400000
12598 5212 13950 1 149.00000 418.400000
12598 5213 15920 1 149.00000 418.400000
12599 5214 12749 1 149.00000 418.400000
12599 5215 16111 1 149.00000 418.400000
12599 5216 23998 1 149.00000 418.400000
12600 5217 12808 1 149.00000 418.400000
12600 5218 12942 1 149.00000 418.400000
12600 5219 12970 1 149.00000 418.400000
12600 5220 15647 1 149.00000 418.400000
15527 5221 23806 1 149.00000 418.400000
12601 5222 16032 1 149.00000 418.400000
13775 5223 14573 1 149.00000 418.400000
12602 5224 13775 1 149.00000 418.400000
12602 5225 15861 1 149.00000 418.400000
12602 5226 15846 1 149.00000 418.400000
12603 5227 15852 1 149.00000 418.400000
12603 5228 14660 1 149.00000 418.400000
12603 5229 13118 1 149.00000 418.400000
12603 5230 14524 1 149.00000 418.400000
15161 5231 15258 1 149.00000 418.400000
12604 5232 13105 1 149.00000 418.400000
12604 5233 15161 1 149.00000 418.400000
18685 5234 18697 1 149.00000 418.400000
14298 5235 18685 1 149.00000 418.400000
12605 5236 13413 1 149.00000 418.400000
12605 5237 15557 1 149.00000 418.400000
12606 5238 15686 1 149.00000 418.400000
14500 5239 15686 1 149.00000 418.400000
12606 5240 14666 1 149.00000 418.400000
12606 5241 14265 1 149.00000 418.400000
12607 5242 13446 1 149.00000 418.400000
12607 5243 14733 1 149.00000 418.400000
12607 5244 15713 1 149.00000 418.400000
12607 5245 13078 1 149.00000 418.400000
12608 5246 13256 1 149.00000 418.400000
12608 5247 13452 1 149.00000 418.400000
12608 5248 13307 1 149.00000 418.400000
12609 5249 13866 1 149.00000 418.400000
12609 5250 13802 1 149.00000 418.400000
12609 5251 23884 1 149.00000 418.400000
15417 5252 15552 1 149.00000 418.400000
12610 5253 15552 1 149.00000 418.400000
12610 5254 14885 1 149.00000 418.400000
12610 5255 15592 1 149.00000 418.400000
20605 5256 23986 1 149.00000 418.400000
20605 5257 24022 1 149.00000 418.400000
12611 5258 17277 1 149.00000 418.400000
12611 5259 14845 1 149.00000 418.400000
15616 5260 22021 1 149.00000 418.400000
22021 5261 23941 1 149.00000 418.400000
12612 5262 16156 1 149.00000 418.400000
12612 5263 15711 1 149.00000 418.400000
12612 5264 15035 1 149.00000 418.400000
12613 5265 14229 1 149.00000 418.400000
12613 5266 16156 1 149.00000 418.400000
12614 5267 13624 1 149.00000 418.400000
12614 5268 17991 1 149.00000 418.400000
12614 5269 19765 1 149.00000 418.400000
12614 5270 19909 1 149.00000 418.400000
12615 5271 14155 1 149.00000 418.400000
12615 5272 14968 1 149.00000 418.400000
12615 5273 13328 1 149.00000 418.400000
12616 5274 14710 1 149.00000 418.400000
12616 5275 13965 1 149.00000 418.400000
12616 5276 12655 1 149.00000 418.400000
12617 5277 13368 1 149.00000 418.400000
12617 5278 15950 1 149.00000 418.400000
12617 5279 15278 1 149.00000 418.400000
12617 5280 14387 1 149.00000 418.400000
12618 5281 13912 1 149.00000 418.400000
12618 5282 15913 1 149.00000 418.400000
12618 5283 12802 1 149.00000 418.400000
12618 5284 13942 1 149.00000 418.400000
12619 5285 16242 1 149.00000 418.400000
12619 5286 15314 1 149.00000 418.400000
23809 5287 24118 1 149.00000 418.400000
19057 5288 23809 1 149.00000 418.400000
12620 5289 15709 1 149.00000 418.400000
12620 5290 13045 1 149.00000 418.400000
12620 5291 13427 1 149.00000 418.400000
12621 5292 13668 1 149.00000 418.400000
12621 5293 12934 1 149.00000 418.400000
12621 5294 14706 1 149.00000 418.400000
12622 5295 14362 1 149.00000 418.400000
12622 5296 13352 1 149.00000 418.400000
12622 5297 19789 1 149.00000 418.400000
13237 5298 17837 1 149.00000 418.400000
17837 5299 19609 1 149.00000 418.400000
11327 5300 12623 1 149.00000 418.400000
12623 5301 15036 1 149.00000 418.400000
12623 5302 14600 1 149.00000 418.400000
12624 5303 13461 1 149.00000 418.400000
12624 5304 13898 1 149.00000 418.400000
12625 5305 13948 1 149.00000 418.400000
12625 5306 15055 1 149.00000 418.400000
12625 5307 23017 1 149.00000 418.400000
12626 5308 12636 1 149.00000 418.400000
12626 5309 13783 1 149.00000 418.400000
12626 5310 13762 1 149.00000 418.400000
12626 5311 13574 1 149.00000 418.400000
12627 5312 13007 1 149.00000 418.400000
12628 5313 13606 1 149.00000 418.400000
12628 5314 13877 1 149.00000 418.400000
12628 5315 13967 1 149.00000 418.400000
12628 5316 15807 1 149.00000 418.400000
12629 5317 12748 1 149.00000 418.400000
12629 5318 12669 1 149.00000 418.400000
12629 5319 13076 1 149.00000 418.400000
12629 5320 15429 1 149.00000 418.400000
12630 5321 14546 1 149.00000 418.400000
12630 5322 22801 1 149.00000 418.400000
12630 5323 13974 1 149.00000 418.400000
16049 5324 23812 1 149.00000 418.400000
21973 5325 23812 1 149.00000 418.400000
12631 5326 14033 1 149.00000 418.400000
12631 5327 14989 1 149.00000 418.400000
12631 5328 13483 1 149.00000 418.400000
12632 5329 14094 1 149.00000 418.400000
12633 5330 13638 1 149.00000 418.400000
12633 5331 14341 1 149.00000 418.400000
12633 5332 16052 1 149.00000 418.400000
12634 5333 24124 1 149.00000 418.400000
12634 5334 14911 1 149.00000 418.400000
13546 5335 15217 1 149.00000 418.400000
12635 5336 13790 1 149.00000 418.400000
13790 5337 15217 1 149.00000 418.400000
13963 5338 15217 1 149.00000 418.400000
12636 5339 15778 1 149.00000 418.400000
12636 5340 12963 1 149.00000 418.400000
12636 5341 15231 1 149.00000 418.400000
12637 5342 15356 1 149.00000 418.400000
12637 5343 15378 1 149.00000 418.400000
14065 5344 18745 1 149.00000 418.400000
12638 5345 13347 1 149.00000 418.400000
12638 5346 12797 1 149.00000 418.400000
12638 5347 14669 1 149.00000 418.400000
12639 5348 21169 1 149.00000 418.400000
12639 5349 15522 1 149.00000 418.400000
12639 5350 13418 1 149.00000 418.400000
13110 5351 20845 1 149.00000 418.400000
18721 5352 23815 1 149.00000 418.400000
15641 5353 23818 1 149.00000 418.400000
12640 5354 15003 1 149.00000 418.400000
12640 5355 13261 1 149.00000 418.400000
19489 5356 24372 1 149.00000 418.400000
12641 5357 12687 1 149.00000 418.400000
12641 5358 16184 1 149.00000 418.400000
11700 5359 12641 1 149.00000 418.400000
12641 5360 13600 1 149.00000 418.400000
12642 5361 16423 1 149.00000 418.400000
12642 5362 15697 1 149.00000 418.400000
12642 5363 14033 1 149.00000 418.400000
12643 5364 15077 1 149.00000 418.400000
12643 5365 15419 1 149.00000 418.400000
12644 5366 15741 1 149.00000 418.400000
12644 5367 13431 1 149.00000 418.400000
12644 5368 15423 1 149.00000 418.400000
12645 5369 13580 1 149.00000 418.400000
12645 5370 12659 1 149.00000 418.400000
12645 5371 15264 1 149.00000 418.400000
12646 5372 14418 1 149.00000 418.400000
15626 5373 17053 1 149.00000 418.400000
17053 5374 20137 1 149.00000 418.400000
13236 5375 14153 1 149.00000 418.400000
13236 5376 15913 1 149.00000 418.400000
12647 5377 15264 1 149.00000 418.400000
12647 5378 14972 1 149.00000 418.400000
12648 5379 15390 1 149.00000 418.400000
11989 5380 12648 1 149.00000 418.400000
12649 5381 15575 1 149.00000 418.400000
12650 5382 14033 1 149.00000 418.400000
12650 5383 13525 1 149.00000 418.400000
12650 5384 12762 1 149.00000 418.400000
12651 5385 15654 1 149.00000 418.400000
12651 5386 13190 1 149.00000 418.400000
12651 5387 13549 1 149.00000 418.400000
12652 5388 13752 1 149.00000 418.400000
12652 5389 13303 1 149.00000 418.400000
12652 5390 13092 1 149.00000 418.400000
15019 5391 18817 1 149.00000 418.400000
18817 5392 24112 1 149.00000 418.400000
12131 5393 23125 1 149.00000 418.400000
15652 5394 23125 1 149.00000 418.400000
12653 5395 12823 1 149.00000 418.400000
12653 5396 12745 1 149.00000 418.400000
12653 5397 13063 1 149.00000 418.400000
12653 5398 14337 1 149.00000 418.400000
12654 5399 16152 1 149.00000 418.400000
12654 5400 16075 1 149.00000 418.400000
12654 5401 13048 1 149.00000 418.400000
12654 5402 13614 1 149.00000 418.400000
12655 5403 13369 1 149.00000 418.400000
12655 5404 12675 1 149.00000 418.400000
12655 5405 14898 1 149.00000 418.400000
12656 5406 13691 1 149.00000 418.400000
12656 5407 13126 1 149.00000 418.400000
12656 5408 13137 1 149.00000 418.400000
12657 5409 15483 1 149.00000 418.400000
11808 5410 12657 1 149.00000 418.400000
12658 5411 15505 1 149.00000 418.400000
12658 5412 14935 1 149.00000 418.400000
15832 5413 20893 1 149.00000 418.400000
20893 5414 24037 1 149.00000 418.400000
23821 5415 24298 1 149.00000 418.400000
13533 5416 23821 1 149.00000 418.400000
12659 5417 15958 1 149.00000 418.400000
12659 5418 16161 1 149.00000 418.400000
12647 5419 12659 1 149.00000 418.400000
12660 5420 14850 1 149.00000 418.400000
12660 5421 13884 1 149.00000 418.400000
12660 5422 13178 1 149.00000 418.400000
12660 5423 16044 1 149.00000 418.400000
12661 5424 13053 1 149.00000 418.400000
12661 5425 14668 1 149.00000 418.400000
12661 5426 15214 1 149.00000 418.400000
20653 5427 22981 1 149.00000 418.400000
22981 5428 23197 1 149.00000 418.400000
12662 5429 13459 1 149.00000 418.400000
12662 5430 14590 1 149.00000 418.400000
12663 5431 13150 1 149.00000 418.400000
12663 5432 14245 1 149.00000 418.400000
12663 5433 13164 1 149.00000 418.400000
12664 5434 14133 1 149.00000 418.400000
12664 5435 16123 1 149.00000 418.400000
12664 5436 16262 1 149.00000 418.400000
12665 5437 24073 1 149.00000 418.400000
12665 5438 14128 1 149.00000 418.400000
12665 5439 12693 1 149.00000 418.400000
20581 5440 20821 1 149.00000 418.400000
12666 5441 18349 1 149.00000 418.400000
12666 5442 24175 1 149.00000 418.400000
12666 5443 13212 1 149.00000 418.400000
12667 5444 14199 1 149.00000 418.400000
13851 5445 16077 1 149.00000 418.400000
12668 5446 13851 1 149.00000 418.400000
12668 5447 15462 1 149.00000 418.400000
12669 5448 24022 1 149.00000 418.400000
12669 5449 15826 1 149.00000 418.400000
11460 5450 12670 1 149.00000 418.400000
11659 5451 14641 1 149.00000 418.400000
11659 5452 14652 1 149.00000 418.400000
12671 5453 14607 1 149.00000 418.400000
12671 5454 15649 1 149.00000 418.400000
12671 5455 15333 1 149.00000 418.400000
12672 5456 16224 1 149.00000 418.400000
12672 5457 15336 1 149.00000 418.400000
12672 5458 15007 1 149.00000 418.400000
12672 5459 13709 1 149.00000 418.400000
12673 5460 23932 1 149.00000 418.400000
12673 5461 15136 1 149.00000 418.400000
12673 5462 19045 1 149.00000 418.400000
12673 5463 20689 1 149.00000 418.400000
12894 5464 13049 1 149.00000 418.400000
12675 5465 13342 1 149.00000 418.400000
12675 5466 12894 1 149.00000 418.400000
23581 5467 24148 1 149.00000 418.400000
21541 5468 23581 1 149.00000 418.400000
12821 5469 23581 1 149.00000 418.400000
12676 5470 14268 1 149.00000 418.400000
12676 5471 15340 1 149.00000 418.400000
23824 5472 24377 1 149.00000 418.400000
23824 5473 24223 1 149.00000 418.400000
12677 5474 14978 1 149.00000 418.400000
12677 5475 13291 1 149.00000 418.400000
11459 5476 15693 1 149.00000 418.400000
12679 5477 15942 1 149.00000 418.400000
12679 5478 14492 1 149.00000 418.400000
12680 5479 15598 1 149.00000 418.400000
12680 5480 15248 1 149.00000 418.400000
12680 5481 16038 1 149.00000 418.400000
12680 5482 14146 1 149.00000 418.400000
12681 5483 15843 1 149.00000 418.400000
12681 5484 13601 1 149.00000 418.400000
12681 5485 13181 1 149.00000 418.400000
13511 5486 18793 1 149.00000 418.400000
16257 5487 18793 1 149.00000 418.400000
12682 5488 14332 1 149.00000 418.400000
12682 5489 14704 1 149.00000 418.400000
12682 5490 13573 1 149.00000 418.400000
12683 5491 13990 1 149.00000 418.400000
12683 5492 13942 1 149.00000 418.400000
12683 5493 15203 1 149.00000 418.400000
12684 5494 14269 1 149.00000 418.400000
12684 5495 13933 1 149.00000 418.400000
16082 5496 20485 1 149.00000 418.400000
15190 5497 20485 1 149.00000 418.400000
20485 5498 23863 1 149.00000 418.400000
12685 5499 14825 1 149.00000 418.400000
12685 5500 16066 1 149.00000 418.400000
22453 5501 23935 1 149.00000 418.400000
14496 5502 22453 1 149.00000 418.400000
15868 5503 22453 1 149.00000 418.400000
12686 5504 24016 1 149.00000 418.400000
12686 5505 15591 1 149.00000 418.400000
12686 5506 23836 1 149.00000 418.400000
12687 5507 15620 1 149.00000 418.400000
12687 5508 14789 1 149.00000 418.400000
12687 5509 15332 1 149.00000 418.400000
12688 5510 12965 1 149.00000 418.400000
12688 5511 14219 1 149.00000 418.400000
12689 5512 15895 1 149.00000 418.400000
12689 5513 16255 1 149.00000 418.400000
12689 5514 14022 1 149.00000 418.400000
12689 5515 15096 1 149.00000 418.400000
15473 5516 23827 1 149.00000 418.400000
12690 5517 16224 1 149.00000 418.400000
12690 5518 13502 1 149.00000 418.400000
12690 5519 12992 1 149.00000 418.400000
12691 5520 15069 1 149.00000 418.400000
12691 5521 12744 1 149.00000 418.400000
12691 5522 15010 1 149.00000 418.400000
12692 5523 14225 1 149.00000 418.400000
12692 5524 14185 1 149.00000 418.400000
12693 5525 15991 1 149.00000 418.400000
13862 5526 23830 1 149.00000 418.400000
22765 5527 23830 1 149.00000 418.400000
12694 5528 13557 1 149.00000 418.400000
12694 5529 14717 1 149.00000 418.400000
12694 5530 13205 1 149.00000 418.400000
12694 5531 14151 1 149.00000 418.400000
12695 5532 12886 1 149.00000 418.400000
12695 5533 12950 1 149.00000 418.400000
12695 5534 12951 1 149.00000 418.400000
12696 5535 13509 1 149.00000 418.400000
12696 5536 15902 1 149.00000 418.400000
12697 5537 16143 1 149.00000 418.400000
12697 5538 13082 1 149.00000 418.400000
12697 5539 15184 1 149.00000 418.400000
16263 5540 18187 1 149.00000 418.400000
13841 5541 18187 1 149.00000 418.400000
12698 5542 16507 1 149.00000 418.400000
12698 5543 15021 1 149.00000 418.400000
12699 5544 15881 1 149.00000 418.400000
13897 5545 15618 1 149.00000 418.400000
12699 5546 14098 1 149.00000 418.400000
12699 5547 15618 1 149.00000 418.400000
12700 5548 15704 1 149.00000 418.400000
12700 5549 13789 1 149.00000 418.400000
12057 5550 15563 1 149.00000 418.400000
15989 5551 22069 1 149.00000 418.400000
13760 5552 22069 1 149.00000 418.400000
12701 5553 15693 1 149.00000 418.400000
12701 5554 15065 1 149.00000 418.400000
12701 5555 14056 1 149.00000 418.400000
12701 5556 12912 1 149.00000 418.400000
12702 5557 15050 1 149.00000 418.400000
12702 5558 14305 1 149.00000 418.400000
12702 5559 14064 1 149.00000 418.400000
12703 5560 15976 1 149.00000 418.400000
12703 5561 24417 1 149.00000 418.400000
12704 5562 14126 1 149.00000 418.400000
12704 5563 14516 1 149.00000 418.400000
12704 5564 14101 1 149.00000 418.400000
12705 5565 15379 1 149.00000 418.400000
12705 5566 17543 1 149.00000 418.400000
12705 5567 15603 1 149.00000 418.400000
12706 5568 13848 1 149.00000 418.400000
12706 5569 14271 1 149.00000 418.400000
12706 5570 12721 1 149.00000 418.400000
12707 5571 13375 1 149.00000 418.400000
12708 5572 21253 1 149.00000 418.400000
12708 5573 15796 1 149.00000 418.400000
12709 5574 15635 1 149.00000 418.400000
12709 5575 13469 1 149.00000 418.400000
12709 5576 15867 1 149.00000 418.400000
11910 5577 15274 1 149.00000 418.400000
15274 5578 22681 1 149.00000 418.400000
13293 5579 23836 1 149.00000 418.400000
15874 5580 24452 1 149.00000 418.400000
23836 5581 24452 1 149.00000 418.400000
12710 5582 22381 1 149.00000 418.400000
12710 5583 15284 1 149.00000 418.400000
12710 5584 14148 1 149.00000 418.400000
12711 5585 15586 1 149.00000 418.400000
12711 5586 13332 1 149.00000 418.400000
12712 5587 13856 1 149.00000 418.400000
12712 5588 14806 1 149.00000 418.400000
12712 5589 13218 1 149.00000 418.400000
12712 5590 16225 1 149.00000 418.400000
12713 5591 16272 1 149.00000 418.400000
12713 5592 19477 1 149.00000 418.400000
12713 5593 13573 1 149.00000 418.400000
12714 5594 14232 1 149.00000 418.400000
12714 5595 12868 1 149.00000 418.400000
12714 5596 15268 1 149.00000 418.400000
12714 5597 15777 1 149.00000 418.400000
12715 5598 15324 1 149.00000 418.400000
12715 5599 12787 1 149.00000 418.400000
12716 5600 15408 1 149.00000 418.400000
12716 5601 13448 1 149.00000 418.400000
12717 5602 14081 1 149.00000 418.400000
12717 5603 14225 1 149.00000 418.400000
12717 5604 13539 1 149.00000 418.400000
12718 5605 14124 1 149.00000 418.400000
12718 5606 14441 1 149.00000 418.400000
12718 5607 13947 1 149.00000 418.400000
12718 5608 13282 1 149.00000 418.400000
12719 5609 13996 1 149.00000 418.400000
12719 5610 14783 1 149.00000 418.400000
12719 5611 16233 1 149.00000 418.400000
12720 5612 15210 1 149.00000 418.400000
12720 5613 15068 1 149.00000 418.400000
12720 5614 15911 1 149.00000 418.400000
12721 5615 13958 1 149.00000 418.400000
12721 5616 15325 1 149.00000 418.400000
12721 5617 14782 1 149.00000 418.400000
12722 5618 15403 1 149.00000 418.400000
12722 5619 14112 1 149.00000 418.400000
12722 5620 13868 1 149.00000 418.400000
12722 5621 13424 1 149.00000 418.400000
12723 5622 14878 1 149.00000 418.400000
12723 5623 16144 1 149.00000 418.400000
12723 5624 14043 1 149.00000 418.400000
12723 5625 14112 1 149.00000 418.400000
12724 5626 15930 1 149.00000 418.400000
12725 5627 18457 1 149.00000 418.400000
12725 5628 14317 1 149.00000 418.400000
12726 5629 13985 1 149.00000 418.400000
13536 5630 23839 1 149.00000 418.400000
12727 5631 13952 1 149.00000 418.400000
14953 5632 15742 1 149.00000 418.400000
12727 5633 15742 1 149.00000 418.400000
12727 5634 13249 1 149.00000 418.400000
12728 5635 15803 1 149.00000 418.400000
12728 5636 15711 1 149.00000 418.400000
12728 5637 12795 1 149.00000 418.400000
12728 5638 13389 1 149.00000 418.400000
12729 5639 15004 1 149.00000 418.400000
12729 5640 13058 1 149.00000 418.400000
12729 5641 15216 1 149.00000 418.400000
12730 5642 14507 1 149.00000 418.400000
12730 5643 15994 1 149.00000 418.400000
12730 5644 13440 1 149.00000 418.400000
12730 5645 14384 1 149.00000 418.400000
12731 5646 13417 1 149.00000 418.400000
12731 5647 15123 1 149.00000 418.400000
12731 5648 14441 1 149.00000 418.400000
12732 5649 16173 1 149.00000 418.400000
12732 5650 13931 1 149.00000 418.400000
12732 5651 14891 1 149.00000 418.400000
12732 5652 16196 1 149.00000 418.400000
13738 5653 14615 1 149.00000 418.400000
12733 5654 13738 1 149.00000 418.400000
12733 5655 14123 1 149.00000 418.400000
12734 5656 13442 1 149.00000 418.400000
12734 5657 13649 1 149.00000 418.400000
12734 5658 15071 1 149.00000 418.400000
12734 5659 15593 1 149.00000 418.400000
15445 5660 23719 1 149.00000 418.400000
12735 5661 12968 1 149.00000 418.400000
12735 5662 15237 1 149.00000 418.400000
12735 5663 13804 1 149.00000 418.400000
12736 5664 13645 1 149.00000 418.400000
12736 5665 12890 1 149.00000 418.400000
12736 5666 23905 1 149.00000 418.400000
12737 5667 14626 1 149.00000 418.400000
12737 5668 16143 1 149.00000 418.400000
12737 5669 14175 1 149.00000 418.400000
12738 5670 13958 1 149.00000 418.400000
12738 5671 19621 1 149.00000 418.400000
12738 5672 12896 1 149.00000 418.400000
12738 5673 24211 1 149.00000 418.400000
12739 5674 13952 1 149.00000 418.400000
12739 5675 12946 1 149.00000 418.400000
12739 5676 13262 1 149.00000 418.400000
12739 5677 12773 1 149.00000 418.400000
12740 5678 15046 1 149.00000 418.400000
12740 5679 13442 1 149.00000 418.400000
12740 5680 15870 1 149.00000 418.400000
12741 5681 16094 1 149.00000 418.400000
12741 5682 14287 1 149.00000 418.400000
12742 5683 14518 1 149.00000 418.400000
12742 5684 14159 1 149.00000 418.400000
12742 5685 15233 1 149.00000 418.400000
12743 5686 15479 1 149.00000 418.400000
12743 5687 14177 1 149.00000 418.400000
12743 5688 13758 1 149.00000 418.400000
12744 5689 14243 1 149.00000 418.400000
12744 5690 14552 1 149.00000 418.400000
12745 5691 15912 1 149.00000 418.400000
12745 5692 13611 1 149.00000 418.400000
12745 5693 14607 1 149.00000 418.400000
11707 5694 13086 1 149.00000 418.400000
13086 5695 15753 1 149.00000 418.400000
12747 5696 14973 1 149.00000 418.400000
12747 5697 14969 1 149.00000 418.400000
12747 5698 15514 1 149.00000 418.400000
12747 5699 15750 1 149.00000 418.400000
12748 5700 12964 1 149.00000 418.400000
12748 5701 15906 1 149.00000 418.400000
12748 5702 15785 1 149.00000 418.400000
12749 5703 14927 1 149.00000 418.400000
12749 5704 13004 1 149.00000 418.400000
12749 5705 15567 1 149.00000 418.400000
12793 5706 13687 1 149.00000 418.400000
12750 5707 14480 1 149.00000 418.400000
12750 5708 12793 1 149.00000 418.400000
12751 5709 17025 1 149.00000 418.400000
12751 5710 13191 1 149.00000 418.400000
12752 5711 13455 1 149.00000 418.400000
12752 5712 13473 1 149.00000 418.400000
14147 5713 22369 1 149.00000 418.400000
22369 5714 23893 1 149.00000 418.400000
14262 5715 21457 1 149.00000 418.400000
13161 5716 21457 1 149.00000 418.400000
21457 5717 23962 1 149.00000 418.400000
12753 5718 14646 1 149.00000 418.400000
12753 5719 13680 1 149.00000 418.400000
12753 5720 15954 1 149.00000 418.400000
12753 5721 15974 1 149.00000 418.400000
12754 5722 14534 1 149.00000 418.400000
12754 5723 14370 1 149.00000 418.400000
12754 5724 15184 1 149.00000 418.400000
15741 5725 18733 1 149.00000 418.400000
13714 5726 18733 1 149.00000 418.400000
18733 5727 20761 1 149.00000 418.400000
12755 5728 14452 1 149.00000 418.400000
12755 5729 13801 1 149.00000 418.400000
12755 5730 14795 1 149.00000 418.400000
12756 5731 14825 1 149.00000 418.400000
12756 5732 14005 1 149.00000 418.400000
12757 5733 13039 1 149.00000 418.400000
12757 5734 13088 1 149.00000 418.400000
12758 5735 20305 1 149.00000 418.400000
12758 5736 19597 1 149.00000 418.400000
15896 5737 23842 1 149.00000 418.400000
12759 5738 15507 1 149.00000 418.400000
12759 5739 13152 1 149.00000 418.400000
12759 5740 15301 1 149.00000 418.400000
12759 5741 14655 1 149.00000 418.400000
12760 5742 15813 1 149.00000 418.400000
12760 5743 12827 1 149.00000 418.400000
14729 5744 15813 1 149.00000 418.400000
12590 5745 12761 1 149.00000 418.400000
12761 5746 14010 1 149.00000 418.400000
12762 5747 14986 1 149.00000 418.400000
12762 5748 14171 1 149.00000 418.400000
12763 5749 14345 1 149.00000 418.400000
12763 5750 13754 1 149.00000 418.400000
13766 5751 19345 1 149.00000 418.400000
13840 5752 19345 1 149.00000 418.400000
12764 5753 13372 1 149.00000 418.400000
12764 5754 13020 1 149.00000 418.400000
12764 5755 15761 1 149.00000 418.400000
12765 5756 14295 1 149.00000 418.400000
12765 5757 14186 1 149.00000 418.400000
12765 5758 13835 1 149.00000 418.400000
12766 5759 14469 1 149.00000 418.400000
14469 5760 16116 1 149.00000 418.400000
12767 5761 14696 1 149.00000 418.400000
12767 5762 22549 1 149.00000 418.400000
12767 5763 20905 1 149.00000 418.400000
14398 5764 14696 1 149.00000 418.400000
12768 5765 13092 1 149.00000 418.400000
12768 5766 15702 1 149.00000 418.400000
12769 5767 15424 1 149.00000 418.400000
12769 5768 14211 1 149.00000 418.400000
12769 5769 15183 1 149.00000 418.400000
12769 5770 13754 1 149.00000 418.400000
12770 5771 14580 1 149.00000 418.400000
12771 5772 15626 1 149.00000 418.400000
12771 5773 14900 1 149.00000 418.400000
13511 5774 23077 1 149.00000 418.400000
13403 5775 23077 1 149.00000 418.400000
16087 5776 23077 1 149.00000 418.400000
12772 5777 12790 1 149.00000 418.400000
12772 5778 13286 1 149.00000 418.400000
12772 5779 14640 1 149.00000 418.400000
12773 5780 13519 1 149.00000 418.400000
12773 5781 13891 1 149.00000 418.400000
12773 5782 13393 1 149.00000 418.400000
12774 5783 14722 1 149.00000 418.400000
12774 5784 13009 1 149.00000 418.400000
12774 5785 14854 1 149.00000 418.400000
12775 5786 21481 1 149.00000 418.400000
12776 5787 13416 1 149.00000 418.400000
12776 5788 15280 1 149.00000 418.400000
12776 5789 13771 1 149.00000 418.400000
12776 5790 15835 1 149.00000 418.400000
15024 5791 15271 1 149.00000 418.400000
12777 5792 15024 1 149.00000 418.400000
12777 5793 14790 1 149.00000 418.400000
13089 5794 13728 1 149.00000 418.400000
12778 5795 14093 1 149.00000 418.400000
12778 5796 13874 1 149.00000 418.400000
12778 5797 13728 1 149.00000 418.400000
12779 5798 13461 1 149.00000 418.400000
11327 5799 12779 1 149.00000 418.400000
12779 5800 14044 1 149.00000 418.400000
12779 5801 13669 1 149.00000 418.400000
12780 5802 13177 1 149.00000 418.400000
12781 5803 15128 1 149.00000 418.400000
12781 5804 15035 1 149.00000 418.400000
12781 5805 15803 1 149.00000 418.400000
12782 5806 15280 1 149.00000 418.400000
12782 5807 15015 1 149.00000 418.400000
12782 5808 14659 1 149.00000 418.400000
12782 5809 15216 1 149.00000 418.400000
12783 5810 15391 1 149.00000 418.400000
12783 5811 14686 1 149.00000 418.400000
12784 5812 12932 1 149.00000 418.400000
12784 5813 13967 1 149.00000 418.400000
12784 5814 12839 1 149.00000 418.400000
12785 5815 16116 1 149.00000 418.400000
12785 5816 15670 1 149.00000 418.400000
12785 5817 13344 1 149.00000 418.400000
12786 5818 15806 1 149.00000 418.400000
12786 5819 16050 1 149.00000 418.400000
12715 5820 13571 1 149.00000 418.400000
12787 5821 13958 1 149.00000 418.400000
12788 5822 14309 1 149.00000 418.400000
12788 5823 15973 1 149.00000 418.400000
13121 5824 15066 1 149.00000 418.400000
12789 5825 15066 1 149.00000 418.400000
12789 5826 15035 1 149.00000 418.400000
12789 5827 13743 1 149.00000 418.400000
14023 5828 14070 1 149.00000 418.400000
14070 5829 23845 1 149.00000 418.400000
13019 5830 23848 1 149.00000 418.400000
12790 5831 14903 1 149.00000 418.400000
12791 5832 15022 1 149.00000 418.400000
12791 5833 21661 1 149.00000 418.400000
12791 5834 17809 1 149.00000 418.400000
12792 5835 13870 1 149.00000 418.400000
12792 5836 14439 1 149.00000 418.400000
14194 5837 14439 1 149.00000 418.400000
14077 5838 14439 1 149.00000 418.400000
16069 5839 21709 1 149.00000 418.400000
14511 5840 16069 1 149.00000 418.400000
16069 5841 19153 1 149.00000 418.400000
15936 5842 16069 1 149.00000 418.400000
12793 5843 24103 1 149.00000 418.400000
12750 5844 16105 1 149.00000 418.400000
12794 5845 17361 1 149.00000 418.400000
12794 5846 17179 1 149.00000 418.400000
12795 5847 13641 1 149.00000 418.400000
12795 5848 22201 1 149.00000 418.400000
12795 5849 14678 1 149.00000 418.400000
12796 5850 15690 1 149.00000 418.400000
12796 5851 14035 1 149.00000 418.400000
12796 5852 14699 1 149.00000 418.400000
12797 5853 15877 1 149.00000 418.400000
12798 5854 13702 1 149.00000 418.400000
12798 5855 13705 1 149.00000 418.400000
12798 5856 24160 1 149.00000 418.400000
12798 5857 15459 1 149.00000 418.400000
12538 5858 12799 1 149.00000 418.400000
12799 5859 13229 1 149.00000 418.400000
15311 5860 22513 1 149.00000 418.400000
14912 5861 15311 1 149.00000 418.400000
12800 5862 15605 1 149.00000 418.400000
14048 5863 14852 1 149.00000 418.400000
12800 5864 14852 1 149.00000 418.400000
12801 5865 15113 1 149.00000 418.400000
12801 5866 19897 1 149.00000 418.400000
12801 5867 15773 1 149.00000 418.400000
12802 5868 14297 1 149.00000 418.400000
12802 5869 16044 1 149.00000 418.400000
12803 5870 14965 1 149.00000 418.400000
12803 5871 13536 1 149.00000 418.400000
12803 5872 15469 1 149.00000 418.400000
12804 5873 12936 1 149.00000 418.400000
12804 5874 14940 1 149.00000 418.400000
12804 5875 13390 1 149.00000 418.400000
12805 5876 13227 1 149.00000 418.400000
12805 5877 13659 1 149.00000 418.400000
12805 5878 13164 1 149.00000 418.400000
11478 5879 12805 1 149.00000 418.400000
12806 5880 13621 1 149.00000 418.400000
12806 5881 13507 1 149.00000 418.400000
12806 5882 13593 1 149.00000 418.400000
12806 5883 15232 1 149.00000 418.400000
12807 5884 14747 1 149.00000 418.400000
12807 5885 13259 1 149.00000 418.400000
12807 5886 15688 1 149.00000 418.400000
12808 5887 16276 1 149.00000 418.400000
12808 5888 15182 1 149.00000 418.400000
12809 5889 13264 1 149.00000 418.400000
12809 5890 14014 1 149.00000 418.400000
12809 5891 14832 1 149.00000 418.400000
13230 5892 22873 1 149.00000 418.400000
12271 5893 22873 1 149.00000 418.400000
14675 5894 22873 1 149.00000 418.400000
12810 5895 14285 1 149.00000 418.400000
12810 5896 15331 1 149.00000 418.400000
12810 5897 14427 1 149.00000 418.400000
12811 5898 15817 1 149.00000 418.400000
12811 5899 15338 1 149.00000 418.400000
12811 5900 14648 1 149.00000 418.400000
12812 5901 14090 1 149.00000 418.400000
12812 5902 13025 1 149.00000 418.400000
12812 5903 13542 1 149.00000 418.400000
12813 5904 13283 1 149.00000 418.400000
12813 5905 14464 1 149.00000 418.400000
12813 5906 15890 1 149.00000 418.400000
12813 5907 13401 1 149.00000 418.400000
12814 5908 15341 1 149.00000 418.400000
12002 5909 12814 1 149.00000 418.400000
12814 5910 13069 1 149.00000 418.400000
12815 5911 14159 1 149.00000 418.400000
12815 5912 13332 1 149.00000 418.400000
12815 5913 14870 1 149.00000 418.400000
12816 5914 14862 1 149.00000 418.400000
12816 5915 14963 1 149.00000 418.400000
12816 5916 13095 1 149.00000 418.400000
12817 5917 13108 1 149.00000 418.400000
12817 5918 13485 1 149.00000 418.400000
16028 5919 21205 1 149.00000 418.400000
11437 5920 12818 1 149.00000 418.400000
12818 5921 15066 1 149.00000 418.400000
12818 5922 13149 1 149.00000 418.400000
12819 5923 15678 1 149.00000 418.400000
12819 5924 15451 1 149.00000 418.400000
12819 5925 13025 1 149.00000 418.400000
12820 5926 14055 1 149.00000 418.400000
12086 5927 13304 1 149.00000 418.400000
12821 5928 15822 1 149.00000 418.400000
12821 5929 14785 1 149.00000 418.400000
12822 5930 13613 1 149.00000 418.400000
12822 5931 16077 1 149.00000 418.400000
12822 5932 13891 1 149.00000 418.400000
12822 5933 13982 1 149.00000 418.400000
12823 5934 13505 1 149.00000 418.400000
12824 5935 14461 1 149.00000 418.400000
12824 5936 14043 1 149.00000 418.400000
12825 5937 13794 1 149.00000 418.400000
12825 5938 13283 1 149.00000 418.400000
12826 5939 14266 1 149.00000 418.400000
12826 5940 13323 1 149.00000 418.400000
12826 5941 14567 1 149.00000 418.400000
12826 5942 14106 1 149.00000 418.400000
15554 5943 15934 1 149.00000 418.400000
13798 5944 15554 1 149.00000 418.400000
12827 5945 15554 1 149.00000 418.400000
12828 5946 14897 1 149.00000 418.400000
12828 5947 14896 1 149.00000 418.400000
12828 5948 13026 1 149.00000 418.400000
12829 5949 16110 1 149.00000 418.400000
12829 5950 13655 1 149.00000 418.400000
12829 5951 12958 1 149.00000 418.400000
12829 5952 13304 1 149.00000 418.400000
12830 5953 13732 1 149.00000 418.400000
12830 5954 15228 1 149.00000 418.400000
12597 5955 12830 1 149.00000 418.400000
12830 5956 15846 1 149.00000 418.400000
12831 5957 13976 1 149.00000 418.400000
12831 5958 13520 1 149.00000 418.400000
12831 5959 13286 1 149.00000 418.400000
12831 5960 15068 1 149.00000 418.400000
12832 5961 13253 1 149.00000 418.400000
12832 5962 13454 1 149.00000 418.400000
14846 5963 19225 1 149.00000 418.400000
12833 5964 13146 1 149.00000 418.400000
12833 5965 19225 1 149.00000 418.400000
12834 5966 15206 1 149.00000 418.400000
12834 5967 15005 1 149.00000 418.400000
12835 5968 13749 1 149.00000 418.400000
12533 5969 12835 1 149.00000 418.400000
12836 5970 14026 1 149.00000 418.400000
12836 5971 14013 1 149.00000 418.400000
12836 5972 13328 1 149.00000 418.400000
13201 5973 14026 1 149.00000 418.400000
16231 5974 23851 1 149.00000 418.400000
19669 5975 23851 1 149.00000 418.400000
12837 5976 13454 1 149.00000 418.400000
12837 5977 15024 1 149.00000 418.400000
13297 5978 14003 1 149.00000 418.400000
18529 5979 21349 1 149.00000 418.400000
13297 5980 18529 1 149.00000 418.400000
13297 5981 14597 1 149.00000 418.400000
12838 5982 13785 1 149.00000 418.400000
12838 5983 13010 1 149.00000 418.400000
12839 5984 15281 1 149.00000 418.400000
12839 5985 13911 1 149.00000 418.400000
12839 5986 13096 1 149.00000 418.400000
12840 5987 16096 1 149.00000 418.400000
12840 5988 15276 1 149.00000 418.400000
12841 5989 15702 1 149.00000 418.400000
12841 5990 14415 1 149.00000 418.400000
20557 5991 24151 1 149.00000 418.400000
12988 5992 20557 1 149.00000 418.400000
12842 5993 14982 1 149.00000 418.400000
12842 5994 13337 1 149.00000 418.400000
12842 5995 16030 1 149.00000 418.400000
12842 5996 14660 1 149.00000 418.400000
21637 5997 23509 1 149.00000 418.400000
13744 5998 23509 1 149.00000 418.400000
12843 5999 15535 1 149.00000 418.400000
20041 6000 22765 1 149.00000 418.400000
16182 6001 22765 1 149.00000 418.400000
12844 6002 15086 1 149.00000 418.400000
12844 6003 13545 1 149.00000 418.400000
12844 6004 12873 1 149.00000 418.400000
16090 6005 18889 1 149.00000 418.400000
15106 6006 18889 1 149.00000 418.400000
12845 6007 15234 1 149.00000 418.400000
12845 6008 12937 1 149.00000 418.400000
12845 6009 15216 1 149.00000 418.400000
12845 6010 13515 1 149.00000 418.400000
12846 6011 15257 1 149.00000 418.400000
12846 6012 15669 1 149.00000 418.400000
12847 6013 12916 1 149.00000 418.400000
12847 6014 21937 1 149.00000 418.400000
12847 6015 14868 1 149.00000 418.400000
12848 6016 16183 1 149.00000 418.400000
12848 6017 14419 1 149.00000 418.400000
12848 6018 14717 1 149.00000 418.400000
12848 6019 16014 1 149.00000 418.400000
11525 6020 13140 1 149.00000 418.400000
11525 6021 15966 1 149.00000 418.400000
12850 6022 15150 1 149.00000 418.400000
12850 6023 13486 1 149.00000 418.400000
12850 6024 13502 1 149.00000 418.400000
12850 6025 14571 1 149.00000 418.400000
16423 6026 23854 1 149.00000 418.400000
14986 6027 23854 1 149.00000 418.400000
12851 6028 13477 1 149.00000 418.400000
12851 6029 14959 1 149.00000 418.400000
12851 6030 15818 1 149.00000 418.400000
15797 6031 21313 1 149.00000 418.400000
15797 6032 21325 1 149.00000 418.400000
12852 6033 13426 1 149.00000 418.400000
12852 6034 14230 1 149.00000 418.400000
12853 6035 13348 1 149.00000 418.400000
12853 6036 16244 1 149.00000 418.400000
12853 6037 13614 1 149.00000 418.400000
12897 6038 22657 1 149.00000 418.400000
12854 6039 13751 1 149.00000 418.400000
12854 6040 15884 1 149.00000 418.400000
12854 6041 13398 1 149.00000 418.400000
12854 6042 15389 1 149.00000 418.400000
12855 6043 15984 1 149.00000 418.400000
12855 6044 14184 1 149.00000 418.400000
12855 6045 15474 1 149.00000 418.400000
12855 6046 15922 1 149.00000 418.400000
12856 6047 15572 1 149.00000 418.400000
12856 6048 13940 1 149.00000 418.400000
12856 6049 15202 1 149.00000 418.400000
12857 6050 16190 1 149.00000 418.400000
13477 6051 24377 1 149.00000 418.400000
12858 6052 14648 1 149.00000 418.400000
12858 6053 15310 1 149.00000 418.400000
12858 6054 14510 1 149.00000 418.400000
12859 6055 14680 1 149.00000 418.400000
12859 6056 13657 1 149.00000 418.400000
12859 6057 16885 1 149.00000 418.400000
12860 6058 14545 1 149.00000 418.400000
12860 6059 15872 1 149.00000 418.400000
12860 6060 15707 1 149.00000 418.400000
12861 6061 16130 1 149.00000 418.400000
12862 6062 13009 1 149.00000 418.400000
12862 6063 14537 1 149.00000 418.400000
12862 6064 15598 1 149.00000 418.400000
12863 6065 13214 1 149.00000 418.400000
12863 6066 16185 1 149.00000 418.400000
12863 6067 15240 1 149.00000 418.400000
12864 6068 15589 1 149.00000 418.400000
12864 6069 13347 1 149.00000 418.400000
12865 6070 15379 1 149.00000 418.400000
12865 6071 14831 1 149.00000 418.400000
12865 6072 16061 1 149.00000 418.400000
12865 6073 14132 1 149.00000 418.400000
12866 6074 14054 1 149.00000 418.400000
12866 6075 14048 1 149.00000 418.400000
12867 6076 16251 1 149.00000 418.400000
12867 6077 14574 1 149.00000 418.400000
12867 6078 15729 1 149.00000 418.400000
13747 6079 21301 1 149.00000 418.400000
15165 6080 21301 1 149.00000 418.400000
12868 6081 14520 1 149.00000 418.400000
12868 6082 14934 1 149.00000 418.400000
12868 6083 14216 1 149.00000 418.400000
12869 6084 13519 1 149.00000 418.400000
12869 6085 14223 1 149.00000 418.400000
12869 6086 13249 1 149.00000 418.400000
12869 6087 14543 1 149.00000 418.400000
16246 6088 23857 1 149.00000 418.400000
22921 6089 23857 1 149.00000 418.400000
12870 6090 15057 1 149.00000 418.400000
12870 6091 15728 1 149.00000 418.400000
12870 6092 13952 1 149.00000 418.400000
12870 6093 13693 1 149.00000 418.400000
12871 6094 14864 1 149.00000 418.400000
12871 6095 15955 1 149.00000 418.400000
12871 6096 13176 1 149.00000 418.400000
12872 6097 13220 1 149.00000 418.400000
12872 6098 13278 1 149.00000 418.400000
14214 6099 21817 1 149.00000 418.400000
18637 6100 21817 1 149.00000 418.400000
13866 6101 21817 1 149.00000 418.400000
12873 6102 14635 1 149.00000 418.400000
12873 6103 16188 1 149.00000 418.400000
12874 6104 15678 1 149.00000 418.400000
12874 6105 13332 1 149.00000 418.400000
12874 6106 14059 1 149.00000 418.400000
12874 6107 14368 1 149.00000 418.400000
19741 6108 23065 1 149.00000 418.400000
15558 6109 23065 1 149.00000 418.400000
15045 6110 23065 1 149.00000 418.400000
12875 6111 14272 1 149.00000 418.400000
14677 6112 14949 1 149.00000 418.400000
12875 6113 14677 1 149.00000 418.400000
15671 6114 15723 1 149.00000 418.400000
12876 6115 15295 1 149.00000 418.400000
12877 6116 23788 1 149.00000 418.400000
12877 6117 15946 1 149.00000 418.400000
12878 6118 15782 1 149.00000 418.400000
12879 6119 15498 1 149.00000 418.400000
12879 6120 12909 1 149.00000 418.400000
12879 6121 13541 1 149.00000 418.400000
15557 6122 18565 1 149.00000 418.400000
13587 6123 18565 1 149.00000 418.400000
12880 6124 14341 1 149.00000 418.400000
12880 6125 15583 1 149.00000 418.400000
12880 6126 16773 1 149.00000 418.400000
12880 6127 13051 1 149.00000 418.400000
12881 6128 13262 1 149.00000 418.400000
11964 6129 12882 1 149.00000 418.400000
12882 6130 24121 1 149.00000 418.400000
12882 6131 13978 1 149.00000 418.400000
12883 6132 12884 1 149.00000 418.400000
12883 6133 13067 1 149.00000 418.400000
12883 6134 15144 1 149.00000 418.400000
13291 6135 15065 1 149.00000 418.400000
12884 6136 12912 1 149.00000 418.400000
12885 6137 14611 1 149.00000 418.400000
12885 6138 13356 1 149.00000 418.400000
12885 6139 13622 1 149.00000 418.400000
12885 6140 15677 1 149.00000 418.400000
12886 6141 13029 1 149.00000 418.400000
12886 6142 15597 1 149.00000 418.400000
12886 6143 13902 1 149.00000 418.400000
12887 6144 24244 1 149.00000 418.400000
13831 6145 14373 1 149.00000 418.400000
12888 6146 13831 1 149.00000 418.400000
13831 6147 15439 1 149.00000 418.400000
19633 6148 24397 1 149.00000 418.400000
19633 6149 21949 1 149.00000 418.400000
12889 6150 18853 1 149.00000 418.400000
12889 6151 23533 1 149.00000 418.400000
12889 6152 24172 1 149.00000 418.400000
12889 6153 15171 1 149.00000 418.400000
12890 6154 13867 1 149.00000 418.400000
12891 6155 13860 1 149.00000 418.400000
12891 6156 14016 1 149.00000 418.400000
12891 6157 13699 1 149.00000 418.400000
12892 6158 15528 1 149.00000 418.400000
12892 6159 13674 1 149.00000 418.400000
12893 6160 14051 1 149.00000 418.400000
12482 6161 13361 1 149.00000 418.400000
13361 6162 15407 1 149.00000 418.400000
13316 6163 23860 1 149.00000 418.400000
13428 6164 23860 1 149.00000 418.400000
12894 6165 14095 1 149.00000 418.400000
12894 6166 13646 1 149.00000 418.400000
13981 6167 16009 1 149.00000 418.400000
12895 6168 15550 1 149.00000 418.400000
12895 6169 15175 1 149.00000 418.400000
12895 6170 13981 1 149.00000 418.400000
12896 6171 15109 1 149.00000 418.400000
12896 6172 24040 1 149.00000 418.400000
12897 6173 14132 1 149.00000 418.400000
12897 6174 14105 1 149.00000 418.400000
15577 6175 16279 1 149.00000 418.400000
12898 6176 13311 1 149.00000 418.400000
12898 6177 15933 1 149.00000 418.400000
11698 6178 16279 1 149.00000 418.400000
12899 6179 14642 1 149.00000 418.400000
12899 6180 12927 1 149.00000 418.400000
12900 6181 15375 1 149.00000 418.400000
12900 6182 15970 1 149.00000 418.400000
12900 6183 13904 1 149.00000 418.400000
12900 6184 14062 1 149.00000 418.400000
12901 6185 14161 1 149.00000 418.400000
12901 6186 13254 1 149.00000 418.400000
12901 6187 24226 1 149.00000 418.400000
12902 6188 13133 1 149.00000 418.400000
12902 6189 16014 1 149.00000 418.400000
12902 6190 14003 1 149.00000 418.400000
12902 6191 13375 1 149.00000 418.400000
14188 6192 18697 1 149.00000 418.400000
12903 6193 14240 1 149.00000 418.400000
12903 6194 13443 1 149.00000 418.400000
12903 6195 14589 1 149.00000 418.400000
12903 6196 13956 1 149.00000 418.400000
19741 6197 20125 1 149.00000 418.400000
14784 6198 20125 1 149.00000 418.400000
14143 6199 17277 1 149.00000 418.400000
12904 6200 15549 1 149.00000 418.400000
12904 6201 14333 1 149.00000 418.400000
12904 6202 13156 1 149.00000 418.400000
12905 6203 13287 1 149.00000 418.400000
12905 6204 13239 1 149.00000 418.400000
12906 6205 14018 1 149.00000 418.400000
12906 6206 15761 1 149.00000 418.400000
12906 6207 14581 1 149.00000 418.400000
12907 6208 14164 1 149.00000 418.400000
12907 6209 14156 1 149.00000 418.400000
12908 6210 14619 1 149.00000 418.400000
12908 6211 15634 1 149.00000 418.400000
12908 6212 14246 1 149.00000 418.400000
12908 6213 15999 1 149.00000 418.400000
12909 6214 13122 1 149.00000 418.400000
12910 6215 13463 1 149.00000 418.400000
12910 6216 13076 1 149.00000 418.400000
12910 6217 13731 1 149.00000 418.400000
12911 6218 14862 1 149.00000 418.400000
12911 6219 20737 1 149.00000 418.400000
12912 6220 15341 1 149.00000 418.400000
12913 6221 16160 1 149.00000 418.400000
12610 6222 12913 1 149.00000 418.400000
12914 6223 15401 1 149.00000 418.400000
12914 6224 23977 1 149.00000 418.400000
12914 6225 20281 1 149.00000 418.400000
12915 6226 14455 1 149.00000 418.400000
12915 6227 15814 1 149.00000 418.400000
12915 6228 13861 1 149.00000 418.400000
15040 6229 23863 1 149.00000 418.400000
16239 6230 23866 1 149.00000 418.400000
13846 6231 23866 1 149.00000 418.400000
21721 6232 23866 1 149.00000 418.400000
16591 6233 20881 1 149.00000 418.400000
12315 6234 13761 1 149.00000 418.400000
12916 6235 20749 1 149.00000 418.400000
12917 6236 14069 1 149.00000 418.400000
12917 6237 13299 1 149.00000 418.400000
12917 6238 14804 1 149.00000 418.400000
12918 6239 15670 1 149.00000 418.400000
12918 6240 13690 1 149.00000 418.400000
12918 6241 16134 1 149.00000 418.400000
12918 6242 16191 1 149.00000 418.400000
12919 6243 13596 1 149.00000 418.400000
12919 6244 14915 1 149.00000 418.400000
12920 6245 15935 1 149.00000 418.400000
12921 6246 14833 1 149.00000 418.400000
12921 6247 15582 1 149.00000 418.400000
12922 6248 15375 1 149.00000 418.400000
12922 6249 14222 1 149.00000 418.400000
12922 6250 13047 1 149.00000 418.400000
12923 6251 17753 1 149.00000 418.400000
12924 6252 15677 1 149.00000 418.400000
12924 6253 14138 1 149.00000 418.400000
12924 6254 13996 1 149.00000 418.400000
12925 6255 14163 1 149.00000 418.400000
14052 6256 14714 1 149.00000 418.400000
12925 6257 13188 1 149.00000 418.400000
12925 6258 14052 1 149.00000 418.400000
12926 6259 13972 1 149.00000 418.400000
12926 6260 15987 1 149.00000 418.400000
12926 6261 15419 1 149.00000 418.400000
19153 6262 22561 1 149.00000 418.400000
22561 6263 24145 1 149.00000 418.400000
13932 6264 22561 1 149.00000 418.400000
13250 6265 19513 1 149.00000 418.400000
11334 6266 15483 1 149.00000 418.400000
23005 6267 23869 1 149.00000 418.400000
12928 6268 16079 1 149.00000 418.400000
12928 6269 15352 1 149.00000 418.400000
12928 6270 14474 1 149.00000 418.400000
12928 6271 15713 1 149.00000 418.400000
12929 6272 15411 1 149.00000 418.400000
12929 6273 15235 1 149.00000 418.400000
12929 6274 14398 1 149.00000 418.400000
13746 6275 14398 1 149.00000 418.400000
13617 6276 18961 1 149.00000 418.400000
13539 6277 18961 1 149.00000 418.400000
12930 6278 16127 1 149.00000 418.400000
12930 6279 14657 1 149.00000 418.400000
12930 6280 15920 1 149.00000 418.400000
12930 6281 14823 1 149.00000 418.400000
12931 6282 16187 1 149.00000 418.400000
12124 6283 12932 1 149.00000 418.400000
12932 6284 15807 1 149.00000 418.400000
12932 6285 14840 1 149.00000 418.400000
12933 6286 15496 1 149.00000 418.400000
12933 6287 15673 1 149.00000 418.400000
12934 6288 16068 1 149.00000 418.400000
12934 6289 15783 1 149.00000 418.400000
12935 6290 16078 1 149.00000 418.400000
12935 6291 15824 1 149.00000 418.400000
12936 6292 14288 1 149.00000 418.400000
12936 6293 14788 1 149.00000 418.400000
12936 6294 13740 1 149.00000 418.400000
12937 6295 15556 1 149.00000 418.400000
12937 6296 15508 1 149.00000 418.400000
12938 6297 15546 1 149.00000 418.400000
12938 6298 15623 1 149.00000 418.400000
12938 6299 15146 1 149.00000 418.400000
12938 6300 15241 1 149.00000 418.400000
12939 6301 14221 1 149.00000 418.400000
12939 6302 24253 1 149.00000 418.400000
12939 6303 19933 1 149.00000 418.400000
12940 6304 15823 1 149.00000 418.400000
12940 6305 15775 1 149.00000 418.400000
12941 6306 13954 1 149.00000 418.400000
12941 6307 23329 1 149.00000 418.400000
12941 6308 16011 1 149.00000 418.400000
12942 6309 14689 1 149.00000 418.400000
12942 6310 23233 1 149.00000 418.400000
12943 6311 13530 1 149.00000 418.400000
12943 6312 14101 1 149.00000 418.400000
12943 6313 12963 1 149.00000 418.400000
19369 6314 23485 1 149.00000 418.400000
15158 6315 23485 1 149.00000 418.400000
12944 6316 15783 1 149.00000 418.400000
12944 6317 15585 1 149.00000 418.400000
12944 6318 13668 1 149.00000 418.400000
12945 6319 14673 1 149.00000 418.400000
12945 6320 14315 1 149.00000 418.400000
12888 6321 12945 1 149.00000 418.400000
12945 6322 16061 1 149.00000 418.400000
12946 6323 13456 1 149.00000 418.400000
12946 6324 15057 1 149.00000 418.400000
12947 6325 16122 1 149.00000 418.400000
12947 6326 13795 1 149.00000 418.400000
12947 6327 13372 1 149.00000 418.400000
12948 6328 16126 1 149.00000 418.400000
12948 6329 16189 1 149.00000 418.400000
12948 6330 15532 1 149.00000 418.400000
12949 6331 14378 1 149.00000 418.400000
12949 6332 16024 1 149.00000 418.400000
12949 6333 15070 1 149.00000 418.400000
12949 6334 13699 1 149.00000 418.400000
14244 6335 23413 1 149.00000 418.400000
12950 6336 14094 1 149.00000 418.400000
14094 6337 15597 1 149.00000 418.400000
12951 6338 13441 1 149.00000 418.400000
12951 6339 15916 1 149.00000 418.400000
12952 6340 16270 1 149.00000 418.400000
12952 6341 20857 1 149.00000 418.400000
12952 6342 14999 1 149.00000 418.400000
12953 6343 15323 1 149.00000 418.400000
15323 6344 15408 1 149.00000 418.400000
12953 6345 15943 1 149.00000 418.400000
12954 6346 13259 1 149.00000 418.400000
12954 6347 15046 1 149.00000 418.400000
12954 6348 16195 1 149.00000 418.400000
12954 6349 13111 1 149.00000 418.400000
21805 6350 23872 1 149.00000 418.400000
16134 6351 23872 1 149.00000 418.400000
12955 6352 16085 1 149.00000 418.400000
12955 6353 15899 1 149.00000 418.400000
12956 6354 13115 1 149.00000 418.400000
12956 6355 16260 1 149.00000 418.400000
12568 6356 15389 1 149.00000 418.400000
12957 6357 13972 1 149.00000 418.400000
12958 6358 13659 1 149.00000 418.400000
12958 6359 14905 1 149.00000 418.400000
12959 6360 15408 1 149.00000 418.400000
13716 6361 15211 1 149.00000 418.400000
12959 6362 14694 1 149.00000 418.400000
12959 6363 13716 1 149.00000 418.400000
12960 6364 20473 1 149.00000 418.400000
12960 6365 14078 1 149.00000 418.400000
12960 6366 21601 1 149.00000 418.400000
12960 6367 14431 1 149.00000 418.400000
12961 6368 13153 1 149.00000 418.400000
12445 6369 12961 1 149.00000 418.400000
12961 6370 13833 1 149.00000 418.400000
12962 6371 14886 1 149.00000 418.400000
12962 6372 14334 1 149.00000 418.400000
12962 6373 15085 1 149.00000 418.400000
12963 6374 16078 1 149.00000 418.400000
12963 6375 15201 1 149.00000 418.400000
12964 6376 14705 1 149.00000 418.400000
12964 6377 14918 1 149.00000 418.400000
15670 6378 23875 1 149.00000 418.400000
19585 6379 23875 1 149.00000 418.400000
21805 6380 23875 1 149.00000 418.400000
12965 6381 15922 1 149.00000 418.400000
15021 6382 22549 1 149.00000 418.400000
19165 6383 21073 1 149.00000 418.400000
14244 6384 19165 1 149.00000 418.400000
13840 6385 23878 1 149.00000 418.400000
19837 6386 23878 1 149.00000 418.400000
12966 6387 13610 1 149.00000 418.400000
12966 6388 14075 1 149.00000 418.400000
12966 6389 14470 1 149.00000 418.400000
12966 6390 15630 1 149.00000 418.400000
12967 6391 15465 1 149.00000 418.400000
12967 6392 12971 1 149.00000 418.400000
12967 6393 15986 1 149.00000 418.400000
12967 6394 16109 1 149.00000 418.400000
13217 6395 22321 1 149.00000 418.400000
15249 6396 22321 1 149.00000 418.400000
14192 6397 22321 1 149.00000 418.400000
12968 6398 13099 1 149.00000 418.400000
12968 6399 15431 1 149.00000 418.400000
13099 6400 14577 1 149.00000 418.400000
14656 6401 15881 1 149.00000 418.400000
12969 6402 13572 1 149.00000 418.400000
12969 6403 14627 1 149.00000 418.400000
16134 6404 21613 1 149.00000 418.400000
14867 6405 21613 1 149.00000 418.400000
12983 6406 21613 1 149.00000 418.400000
12970 6407 13358 1 149.00000 418.400000
12970 6408 15691 1 149.00000 418.400000
12971 6409 14636 1 149.00000 418.400000
12972 6410 13368 1 149.00000 418.400000
12972 6411 15491 1 149.00000 418.400000
14342 6412 15487 1 149.00000 418.400000
14319 6413 15487 1 149.00000 418.400000
12973 6414 15487 1 149.00000 418.400000
12974 6415 21685 1 149.00000 418.400000
12975 6416 15874 1 149.00000 418.400000
15473 6417 17473 1 149.00000 418.400000
12975 6418 15473 1 149.00000 418.400000
12976 6419 13269 1 149.00000 418.400000
12976 6420 15804 1 149.00000 418.400000
12977 6421 14085 1 149.00000 418.400000
12977 6422 15272 1 149.00000 418.400000
12978 6423 13112 1 149.00000 418.400000
12979 6424 13837 1 149.00000 418.400000
12979 6425 20389 1 149.00000 418.400000
12979 6426 13989 1 149.00000 418.400000
12979 6427 21553 1 149.00000 418.400000
12980 6428 15442 1 149.00000 418.400000
12980 6429 14209 1 149.00000 418.400000
12981 6430 15166 1 149.00000 418.400000
12981 6431 13372 1 149.00000 418.400000
12982 6432 15715 1 149.00000 418.400000
12982 6433 13387 1 149.00000 418.400000
12983 6434 14555 1 149.00000 418.400000
12983 6435 24130 1 149.00000 418.400000
12983 6436 14836 1 149.00000 418.400000
16016 6437 24130 1 149.00000 418.400000
12984 6438 13707 1 149.00000 418.400000
12984 6439 13969 1 149.00000 418.400000
12985 6440 18925 1 149.00000 418.400000
12985 6441 24232 1 149.00000 418.400000
12985 6442 15220 1 149.00000 418.400000
12986 6443 13470 1 149.00000 418.400000
12986 6444 13258 1 149.00000 418.400000
12986 6445 13331 1 149.00000 418.400000
12986 6446 13640 1 149.00000 418.400000
12987 6447 13379 1 149.00000 418.400000
12987 6448 23965 1 149.00000 418.400000
12987 6449 13721 1 149.00000 418.400000
12988 6450 13384 1 149.00000 418.400000
12988 6451 14574 1 149.00000 418.400000
12988 6452 20425 1 149.00000 418.400000
12989 6453 14253 1 149.00000 418.400000
12989 6454 15212 1 149.00000 418.400000
12989 6455 15432 1 149.00000 418.400000
12990 6456 13619 1 149.00000 418.400000
12990 6457 13062 1 149.00000 418.400000
12990 6458 13938 1 149.00000 418.400000
12990 6459 15609 1 149.00000 418.400000
12991 6460 14202 1 149.00000 418.400000
12991 6461 13571 1 149.00000 418.400000
12991 6462 13848 1 149.00000 418.400000
12991 6463 14960 1 149.00000 418.400000
12992 6464 14230 1 149.00000 418.400000
12992 6465 15017 1 149.00000 418.400000
12992 6466 15497 1 149.00000 418.400000
15059 6467 21925 1 149.00000 418.400000
12260 6468 13720 1 149.00000 418.400000
12993 6469 13608 1 149.00000 418.400000
12260 6470 14449 1 149.00000 418.400000
12994 6471 13765 1 149.00000 418.400000
12994 6472 14268 1 149.00000 418.400000
12995 6473 15360 1 149.00000 418.400000
12995 6474 15022 1 149.00000 418.400000
12995 6475 15444 1 149.00000 418.400000
12996 6476 13155 1 149.00000 418.400000
12996 6477 14595 1 149.00000 418.400000
12996 6478 15216 1 149.00000 418.400000
12596 6479 12997 1 149.00000 418.400000
12998 6480 15530 1 149.00000 418.400000
12998 6481 13695 1 149.00000 418.400000
12998 6482 14770 1 149.00000 418.400000
12999 6483 14621 1 149.00000 418.400000
12999 6484 15237 1 149.00000 418.400000
12999 6485 14073 1 149.00000 418.400000
17249 6486 22861 1 149.00000 418.400000
14106 6487 22861 1 149.00000 418.400000
14047 6488 14106 1 149.00000 418.400000
13000 6489 18649 1 149.00000 418.400000
13001 6490 13745 1 149.00000 418.400000
13001 6491 15122 1 149.00000 418.400000
12059 6492 16353 1 149.00000 418.400000
13002 6493 14200 1 149.00000 418.400000
13002 6494 15797 1 149.00000 418.400000
13002 6495 15291 1 149.00000 418.400000
11867 6496 13002 1 149.00000 418.400000
13003 6497 13686 1 149.00000 418.400000
13003 6498 14544 1 149.00000 418.400000
13003 6499 14099 1 149.00000 418.400000
13003 6500 24283 1 149.00000 418.400000
13004 6501 14578 1 149.00000 418.400000
13004 6502 13121 1 149.00000 418.400000
13005 6503 13960 1 149.00000 418.400000
13005 6504 15677 1 149.00000 418.400000
13006 6505 15960 1 149.00000 418.400000
13006 6506 13310 1 149.00000 418.400000
13007 6507 15398 1 149.00000 418.400000
13008 6508 14795 1 149.00000 418.400000
13008 6509 14766 1 149.00000 418.400000
13008 6510 13249 1 149.00000 418.400000
13008 6511 14381 1 149.00000 418.400000
13009 6512 16038 1 149.00000 418.400000
13010 6513 15347 1 149.00000 418.400000
13010 6514 14701 1 149.00000 418.400000
13011 6515 13575 1 149.00000 418.400000
13011 6516 15318 1 149.00000 418.400000
13012 6517 20257 1 149.00000 418.400000
13012 6518 13278 1 149.00000 418.400000
20257 6519 22045 1 149.00000 418.400000
13013 6520 15894 1 149.00000 418.400000
13013 6521 13953 1 149.00000 418.400000
13014 6522 13089 1 149.00000 418.400000
13014 6523 15042 1 149.00000 418.400000
13014 6524 13764 1 149.00000 418.400000
15956 6525 23881 1 149.00000 418.400000
13767 6526 23884 1 149.00000 418.400000
13015 6527 13178 1 149.00000 418.400000
13015 6528 13898 1 149.00000 418.400000
13015 6529 16157 1 149.00000 418.400000
13016 6530 16085 1 149.00000 418.400000
13016 6531 15667 1 149.00000 418.400000
13017 6532 13748 1 149.00000 418.400000
13017 6533 20989 1 149.00000 418.400000
13017 6534 13275 1 149.00000 418.400000
13017 6535 13059 1 149.00000 418.400000
13018 6536 13888 1 149.00000 418.400000
13018 6537 13528 1 149.00000 418.400000
13019 6538 21901 1 149.00000 418.400000
13019 6539 14250 1 149.00000 418.400000
13021 6540 15127 1 149.00000 418.400000
13021 6541 15283 1 149.00000 418.400000
13021 6542 14222 1 149.00000 418.400000
13021 6543 16056 1 149.00000 418.400000
13022 6544 13141 1 149.00000 418.400000
13022 6545 13715 1 149.00000 418.400000
13715 6546 14224 1 149.00000 418.400000
11499 6547 13533 1 149.00000 418.400000
11499 6548 15379 1 149.00000 418.400000
11499 6549 15343 1 149.00000 418.400000
13024 6550 13940 1 149.00000 418.400000
13024 6551 13506 1 149.00000 418.400000
13506 6552 15572 1 149.00000 418.400000
13025 6553 13348 1 149.00000 418.400000
13025 6554 14976 1 149.00000 418.400000
11402 6555 13026 1 149.00000 418.400000
15644 6556 20797 1 149.00000 418.400000
19213 6557 20797 1 149.00000 418.400000
18601 6558 24382 1 149.00000 418.400000
13027 6559 15991 1 149.00000 418.400000
13027 6560 21781 1 149.00000 418.400000
13027 6561 14150 1 149.00000 418.400000
13027 6562 16181 1 149.00000 418.400000
13028 6563 14775 1 149.00000 418.400000
13028 6564 15679 1 149.00000 418.400000
13028 6565 14679 1 149.00000 418.400000
15700 6566 23887 1 149.00000 418.400000
15975 6567 23887 1 149.00000 418.400000
23233 6568 23887 1 149.00000 418.400000
18781 6569 24079 1 149.00000 418.400000
15787 6570 18781 1 149.00000 418.400000
13029 6571 15869 1 149.00000 418.400000
21025 6572 23305 1 149.00000 418.400000
15014 6573 21025 1 149.00000 418.400000
23305 6574 23944 1 149.00000 418.400000
13030 6575 16031 1 149.00000 418.400000
13030 6576 14838 1 149.00000 418.400000
13030 6577 15027 1 149.00000 418.400000
13031 6578 16045 1 149.00000 418.400000
13031 6579 14889 1 149.00000 418.400000
13031 6580 13461 1 149.00000 418.400000
15516 6581 21493 1 149.00000 418.400000
13032 6582 14868 1 149.00000 418.400000
13032 6583 13503 1 149.00000 418.400000
13032 6584 15601 1 149.00000 418.400000
13032 6585 14656 1 149.00000 418.400000
13033 6586 14863 1 149.00000 418.400000
14863 6587 15572 1 149.00000 418.400000
13740 6588 14561 1 149.00000 418.400000
13034 6589 14561 1 149.00000 418.400000
13034 6590 14478 1 149.00000 418.400000
13034 6591 13643 1 149.00000 418.400000
13035 6592 13498 1 149.00000 418.400000
13035 6593 13082 1 149.00000 418.400000
13036 6594 15304 1 149.00000 418.400000
13036 6595 24187 1 149.00000 418.400000
13036 6596 15145 1 149.00000 418.400000
13037 6597 15599 1 149.00000 418.400000
13037 6598 14355 1 149.00000 418.400000
13037 6599 13656 1 149.00000 418.400000
13900 6600 21781 1 149.00000 418.400000
19333 6601 21781 1 149.00000 418.400000
13038 6602 14651 1 149.00000 418.400000
13038 6603 15206 1 149.00000 418.400000
13038 6604 14538 1 149.00000 418.400000
13038 6605 15415 1 149.00000 418.400000
13039 6606 14183 1 149.00000 418.400000
13039 6607 14500 1 149.00000 418.400000
13040 6608 14304 1 149.00000 418.400000
13040 6609 14021 1 149.00000 418.400000
13040 6610 14984 1 149.00000 418.400000
13040 6611 13571 1 149.00000 418.400000
13041 6612 15074 1 149.00000 418.400000
13041 6613 14490 1 149.00000 418.400000
13041 6614 15388 1 149.00000 418.400000
13042 6615 19369 1 149.00000 418.400000
13034 6616 13042 1 149.00000 418.400000
13042 6617 24250 1 149.00000 418.400000
13043 6618 14572 1 149.00000 418.400000
13043 6619 15552 1 149.00000 418.400000
13044 6620 14095 1 149.00000 418.400000
13044 6621 15847 1 149.00000 418.400000
13453 6622 14095 1 149.00000 418.400000
13045 6623 15029 1 149.00000 418.400000
13045 6624 14702 1 149.00000 418.400000
13046 6625 15260 1 149.00000 418.400000
13046 6626 14653 1 149.00000 418.400000
13046 6627 15387 1 149.00000 418.400000
13046 6628 15095 1 149.00000 418.400000
13047 6629 15037 1 149.00000 418.400000
13047 6630 14630 1 149.00000 418.400000
13048 6631 14253 1 149.00000 418.400000
13048 6632 15486 1 149.00000 418.400000
13050 6633 14058 1 149.00000 418.400000
13050 6634 14912 1 149.00000 418.400000
13050 6635 14241 1 149.00000 418.400000
13051 6636 13978 1 149.00000 418.400000
13051 6637 14165 1 149.00000 418.400000
13051 6638 24238 1 149.00000 418.400000
13350 6639 24387 1 149.00000 418.400000
13052 6640 15835 1 149.00000 418.400000
13052 6641 13948 1 149.00000 418.400000
13052 6642 17137 1 149.00000 418.400000
13053 6643 14524 1 149.00000 418.400000
13054 6644 15687 1 149.00000 418.400000
12929 6645 13054 1 149.00000 418.400000
13054 6646 16535 1 149.00000 418.400000
14751 6647 19213 1 149.00000 418.400000
16106 6648 23890 1 149.00000 418.400000
14374 6649 23890 1 149.00000 418.400000
23617 6650 23890 1 149.00000 418.400000
13055 6651 13426 1 149.00000 418.400000
13055 6652 13502 1 149.00000 418.400000
13055 6653 14841 1 149.00000 418.400000
13055 6654 15627 1 149.00000 418.400000
13056 6655 13162 1 149.00000 418.400000
13056 6656 13359 1 149.00000 418.400000
13056 6657 13689 1 149.00000 418.400000
14359 6658 21073 1 149.00000 418.400000
13057 6659 15771 1 149.00000 418.400000
13057 6660 13287 1 149.00000 418.400000
13057 6661 14135 1 149.00000 418.400000
13058 6662 13515 1 149.00000 418.400000
13058 6663 14482 1 149.00000 418.400000
13059 6664 18925 1 149.00000 418.400000
13059 6665 14319 1 149.00000 418.400000
13060 6666 19609 1 149.00000 418.400000
13060 6667 15212 1 149.00000 418.400000
13061 6668 13419 1 149.00000 418.400000
13061 6669 14346 1 149.00000 418.400000
13061 6670 15394 1 149.00000 418.400000
13062 6671 14421 1 149.00000 418.400000
13062 6672 14679 1 149.00000 418.400000
13063 6673 16154 1 149.00000 418.400000
13063 6674 15445 1 149.00000 418.400000
13063 6675 14343 1 149.00000 418.400000
13064 6676 13181 1 149.00000 418.400000
13064 6677 16259 1 149.00000 418.400000
13064 6678 13207 1 149.00000 418.400000
13065 6679 15606 1 149.00000 418.400000
13065 6680 15720 1 149.00000 418.400000
13065 6681 15293 1 149.00000 418.400000
13065 6682 14738 1 149.00000 418.400000
13066 6683 13606 1 149.00000 418.400000
13067 6684 15472 1 149.00000 418.400000
13068 6685 15260 1 149.00000 418.400000
13068 6686 13991 1 149.00000 418.400000
13069 6687 13367 1 149.00000 418.400000
13070 6688 16166 1 149.00000 418.400000
13070 6689 14144 1 149.00000 418.400000
13070 6690 14673 1 149.00000 418.400000
13071 6691 13185 1 149.00000 418.400000
13071 6692 15178 1 149.00000 418.400000
13071 6693 16033 1 149.00000 418.400000
13071 6694 14541 1 149.00000 418.400000
13072 6695 23161 1 149.00000 418.400000
13072 6696 13463 1 149.00000 418.400000
13072 6697 13152 1 149.00000 418.400000
13072 6698 19525 1 149.00000 418.400000
13073 6699 14744 1 149.00000 418.400000
13073 6700 15386 1 149.00000 418.400000
13073 6701 13941 1 149.00000 418.400000
13073 6702 13631 1 149.00000 418.400000
13074 6703 14265 1 149.00000 418.400000
14265 6704 16179 1 149.00000 418.400000
13075 6705 15282 1 149.00000 418.400000
13075 6706 13362 1 149.00000 418.400000
13076 6707 13838 1 149.00000 418.400000
13076 6708 14104 1 149.00000 418.400000
13077 6709 13932 1 149.00000 418.400000
13077 6710 15181 1 149.00000 418.400000
13078 6711 15625 1 149.00000 418.400000
13079 6712 15110 1 149.00000 418.400000
13079 6713 14313 1 149.00000 418.400000
13079 6714 16271 1 149.00000 418.400000
12544 6715 13079 1 149.00000 418.400000
13080 6716 13409 1 149.00000 418.400000
13081 6717 14454 1 149.00000 418.400000
13081 6718 15716 1 149.00000 418.400000
13081 6719 13961 1 149.00000 418.400000
13081 6720 13681 1 149.00000 418.400000
20113 6721 21433 1 149.00000 418.400000
15697 6722 21433 1 149.00000 418.400000
13797 6723 21433 1 149.00000 418.400000
13082 6724 15629 1 149.00000 418.400000
14206 6725 19273 1 149.00000 418.400000
14302 6726 21421 1 149.00000 418.400000
13083 6727 14818 1 149.00000 418.400000
13083 6728 15018 1 149.00000 418.400000
13084 6729 15336 1 149.00000 418.400000
13084 6730 14757 1 149.00000 418.400000
13084 6731 16103 1 149.00000 418.400000
13085 6732 13190 1 149.00000 418.400000
13085 6733 24181 1 149.00000 418.400000
15622 6734 24049 1 149.00000 418.400000
15622 6735 16229 1 149.00000 418.400000
13086 6736 14318 1 149.00000 418.400000
11707 6737 24013 1 149.00000 418.400000
13087 6738 15135 1 149.00000 418.400000
13087 6739 13899 1 149.00000 418.400000
13087 6740 14756 1 149.00000 418.400000
17025 6741 22381 1 149.00000 418.400000
13721 6742 22381 1 149.00000 418.400000
13088 6743 14521 1 149.00000 418.400000
13088 6744 15444 1 149.00000 418.400000
13088 6745 15404 1 149.00000 418.400000
13089 6746 14663 1 149.00000 418.400000
13089 6747 13273 1 149.00000 418.400000
13090 6748 15980 1 149.00000 418.400000
13090 6749 13242 1 149.00000 418.400000
13090 6750 13547 1 149.00000 418.400000
13090 6751 16161 1 149.00000 418.400000
13091 6752 16265 1 149.00000 418.400000
13091 6753 13508 1 149.00000 418.400000
13091 6754 13324 1 149.00000 418.400000
13091 6755 13435 1 149.00000 418.400000
14409 6756 22309 1 149.00000 418.400000
14250 6757 22309 1 149.00000 418.400000
13092 6758 15064 1 149.00000 418.400000
13093 6759 13866 1 149.00000 418.400000
13093 6760 15525 1 149.00000 418.400000
13093 6761 13414 1 149.00000 418.400000
13321 6762 15156 1 149.00000 418.400000
15138 6763 15156 1 149.00000 418.400000
13094 6764 16226 1 149.00000 418.400000
13358 6765 14990 1 149.00000 418.400000
13095 6766 15918 1 149.00000 418.400000
13095 6767 14990 1 149.00000 418.400000
12141 6768 13096 1 149.00000 418.400000
13096 6769 13838 1 149.00000 418.400000
13096 6770 14173 1 149.00000 418.400000
13097 6771 15072 1 149.00000 418.400000
13097 6772 15453 1 149.00000 418.400000
13097 6773 15138 1 149.00000 418.400000
13098 6774 14086 1 149.00000 418.400000
13098 6775 15980 1 149.00000 418.400000
13098 6776 16043 1 149.00000 418.400000
13099 6777 14167 1 149.00000 418.400000
12968 6778 16107 1 149.00000 418.400000
13099 6779 14261 1 149.00000 418.400000
13963 6780 15468 1 149.00000 418.400000
13100 6781 13963 1 149.00000 418.400000
13100 6782 15957 1 149.00000 418.400000
15539 6783 20869 1 149.00000 418.400000
15557 6784 20869 1 149.00000 418.400000
11877 6785 15342 1 149.00000 418.400000
13101 6786 14535 1 149.00000 418.400000
15342 6787 16279 1 149.00000 418.400000
13102 6788 13553 1 149.00000 418.400000
13102 6789 13490 1 149.00000 418.400000
13102 6790 14386 1 149.00000 418.400000
13103 6791 13335 1 149.00000 418.400000
13103 6792 14878 1 149.00000 418.400000
13103 6793 14082 1 149.00000 418.400000
12166 6794 14508 1 149.00000 418.400000
13104 6795 15473 1 149.00000 418.400000
13105 6796 16150 1 149.00000 418.400000
13105 6797 14169 1 149.00000 418.400000
13106 6798 14558 1 149.00000 418.400000
13106 6799 15705 1 149.00000 418.400000
13106 6800 13580 1 149.00000 418.400000
13107 6801 15967 1 149.00000 418.400000
13107 6802 13125 1 149.00000 418.400000
13107 6803 15588 1 149.00000 418.400000
13108 6804 16123 1 149.00000 418.400000
13108 6805 15987 1 149.00000 418.400000
13108 6806 15245 1 149.00000 418.400000
13109 6807 15371 1 149.00000 418.400000
13109 6808 13652 1 149.00000 418.400000
13109 6809 16227 1 149.00000 418.400000
13222 6810 20845 1 149.00000 418.400000
13111 6811 16013 1 149.00000 418.400000
13112 6812 15586 1 149.00000 418.400000
13113 6813 14262 1 149.00000 418.400000
13113 6814 14900 1 149.00000 418.400000
12516 6815 13114 1 149.00000 418.400000
13114 6816 15270 1 149.00000 418.400000
13115 6817 14834 1 149.00000 418.400000
13115 6818 15210 1 149.00000 418.400000
13116 6819 14647 1 149.00000 418.400000
12792 6820 13116 1 149.00000 418.400000
13116 6821 15947 1 149.00000 418.400000
13024 6822 13116 1 149.00000 418.400000
15983 6823 19117 1 149.00000 418.400000
15842 6824 19117 1 149.00000 418.400000
13118 6825 14359 1 149.00000 418.400000
13118 6826 15393 1 149.00000 418.400000
13118 6827 23569 1 149.00000 418.400000
13119 6828 15665 1 149.00000 418.400000
13119 6829 16159 1 149.00000 418.400000
13119 6830 15180 1 149.00000 418.400000
13120 6831 13160 1 149.00000 418.400000
13120 6832 13879 1 149.00000 418.400000
13121 6833 15478 1 149.00000 418.400000
13121 6834 13757 1 149.00000 418.400000
13122 6835 16829 1 149.00000 418.400000
14330 6836 18997 1 149.00000 418.400000
13122 6837 14330 1 149.00000 418.400000
13123 6838 16230 1 149.00000 418.400000
13123 6839 14463 1 149.00000 418.400000
13124 6840 14637 1 149.00000 418.400000
13125 6841 14588 1 149.00000 418.400000
13125 6842 14575 1 149.00000 418.400000
13126 6843 24169 1 149.00000 418.400000
13126 6844 13401 1 149.00000 418.400000
13127 6845 14587 1 149.00000 418.400000
13127 6846 14256 1 149.00000 418.400000
13127 6847 15333 1 149.00000 418.400000
13127 6848 15746 1 149.00000 418.400000
13128 6849 15201 1 149.00000 418.400000
13128 6850 14702 1 149.00000 418.400000
13128 6851 13530 1 149.00000 418.400000
11441 6852 13129 1 149.00000 418.400000
11810 6853 13129 1 149.00000 418.400000
13130 6854 15154 1 149.00000 418.400000
13130 6855 15459 1 149.00000 418.400000
13131 6856 15474 1 149.00000 418.400000
13131 6857 14190 1 149.00000 418.400000
13131 6858 15102 1 149.00000 418.400000
13131 6859 15361 1 149.00000 418.400000
13132 6860 15416 1 149.00000 418.400000
12232 6861 16058 1 149.00000 418.400000
13132 6862 14364 1 149.00000 418.400000
13133 6863 15876 1 149.00000 418.400000
13134 6864 15635 1 149.00000 418.400000
13134 6865 14794 1 149.00000 418.400000
13134 6866 15986 1 149.00000 418.400000
13918 6867 16181 1 149.00000 418.400000
13135 6868 19333 1 149.00000 418.400000
13135 6869 13918 1 149.00000 418.400000
13136 6870 14692 1 149.00000 418.400000
13136 6871 14493 1 149.00000 418.400000
13137 6872 15553 1 149.00000 418.400000
13137 6873 14464 1 149.00000 418.400000
13137 6874 15830 1 149.00000 418.400000
13138 6875 14084 1 149.00000 418.400000
13138 6876 13856 1 149.00000 418.400000
13138 6877 15649 1 149.00000 418.400000
13139 6878 14651 1 149.00000 418.400000
13139 6879 15374 1 149.00000 418.400000
13140 6880 16191 1 149.00000 418.400000
13140 6881 14680 1 149.00000 418.400000
13140 6882 13690 1 149.00000 418.400000
11915 6883 13141 1 149.00000 418.400000
13141 6884 14052 1 149.00000 418.400000
13142 6885 15454 1 149.00000 418.400000
13142 6886 15970 1 149.00000 418.400000
13143 6887 13680 1 149.00000 418.400000
13144 6888 13478 1 149.00000 418.400000
13145 6889 20461 1 149.00000 418.400000
13145 6890 13645 1 149.00000 418.400000
13146 6891 15532 1 149.00000 418.400000
13146 6892 17501 1 149.00000 418.400000
13147 6893 13938 1 149.00000 418.400000
13147 6894 14490 1 149.00000 418.400000
13148 6895 14371 1 149.00000 418.400000
13148 6896 15038 1 149.00000 418.400000
15038 6897 15228 1 149.00000 418.400000
13148 6898 15270 1 149.00000 418.400000
22417 6899 23896 1 149.00000 418.400000
15370 6900 23896 1 149.00000 418.400000
18285 6901 18541 1 149.00000 418.400000
13149 6902 14495 1 149.00000 418.400000
13149 6903 13821 1 149.00000 418.400000
13149 6904 14809 1 149.00000 418.400000
13150 6905 13590 1 149.00000 418.400000
13151 6906 13313 1 149.00000 418.400000
13151 6907 15495 1 149.00000 418.400000
13151 6908 15413 1 149.00000 418.400000
13151 6909 18613 1 149.00000 418.400000
13152 6910 13909 1 149.00000 418.400000
13153 6911 14802 1 149.00000 418.400000
13153 6912 13360 1 149.00000 418.400000
13154 6913 24217 1 149.00000 418.400000
13154 6914 14549 1 149.00000 418.400000
13154 6915 16151 1 149.00000 418.400000
13358 6916 23899 1 149.00000 418.400000
14376 6917 23899 1 149.00000 418.400000
13155 6918 14087 1 149.00000 418.400000
13155 6919 14761 1 149.00000 418.400000
13155 6920 14869 1 149.00000 418.400000
16034 6921 16871 1 149.00000 418.400000
13156 6922 13658 1 149.00000 418.400000
13156 6923 14172 1 149.00000 418.400000
14172 6924 21253 1 149.00000 418.400000
13157 6925 13367 1 149.00000 418.400000
14672 6926 18865 1 149.00000 418.400000
13158 6927 14835 1 149.00000 418.400000
13158 6928 24112 1 149.00000 418.400000
13158 6929 15060 1 149.00000 418.400000
13159 6930 13742 1 149.00000 418.400000
20593 6931 23902 1 149.00000 418.400000
23902 6932 23980 1 149.00000 418.400000
13160 6933 13855 1 149.00000 418.400000
13160 6934 15173 1 149.00000 418.400000
13161 6935 13892 1 149.00000 418.400000
13161 6936 14805 1 149.00000 418.400000
13161 6937 15134 1 149.00000 418.400000
13162 6938 15137 1 149.00000 418.400000
13162 6939 24229 1 149.00000 418.400000
13162 6940 13799 1 149.00000 418.400000
13163 6941 15433 1 149.00000 418.400000
13163 6942 15378 1 149.00000 418.400000
13163 6943 13435 1 149.00000 418.400000
13164 6944 15714 1 149.00000 418.400000
13164 6945 14527 1 149.00000 418.400000
13165 6946 13932 1 149.00000 418.400000
13165 6947 15645 1 149.00000 418.400000
14207 6948 14664 1 149.00000 418.400000
14664 6949 14836 1 149.00000 418.400000
13166 6950 14664 1 149.00000 418.400000
13167 6951 15335 1 149.00000 418.400000
13167 6952 13400 1 149.00000 418.400000
13167 6953 15417 1 149.00000 418.400000
13167 6954 15334 1 149.00000 418.400000
13168 6955 16119 1 149.00000 418.400000
13168 6956 14572 1 149.00000 418.400000
13168 6957 13496 1 149.00000 418.400000
13169 6958 15690 1 149.00000 418.400000
12282 6959 16260 1 149.00000 418.400000
13170 6960 14070 1 149.00000 418.400000
13145 6961 23905 1 149.00000 418.400000
13171 6962 14495 1 149.00000 418.400000
13171 6963 13481 1 149.00000 418.400000
13481 6964 14255 1 149.00000 418.400000
13397 6965 14941 1 149.00000 418.400000
13172 6966 14748 1 149.00000 418.400000
13172 6967 14941 1 149.00000 418.400000
13173 6968 14608 1 149.00000 418.400000
14608 6969 15051 1 149.00000 418.400000
13174 6970 14560 1 149.00000 418.400000
12171 6971 13390 1 149.00000 418.400000
13175 6972 14249 1 149.00000 418.400000
13175 6973 14053 1 149.00000 418.400000
13175 6974 15629 1 149.00000 418.400000
13176 6975 15031 1 149.00000 418.400000
13176 6976 14366 1 149.00000 418.400000
13176 6977 13394 1 149.00000 418.400000
14469 6978 23908 1 149.00000 418.400000
13177 6979 15689 1 149.00000 418.400000
13177 6980 14248 1 149.00000 418.400000
13177 6981 15135 1 149.00000 418.400000
13178 6982 14760 1 149.00000 418.400000
13178 6983 14982 1 149.00000 418.400000
13179 6984 14296 1 149.00000 418.400000
13179 6985 15006 1 149.00000 418.400000
13179 6986 13504 1 149.00000 418.400000
13180 6987 24244 1 149.00000 418.400000
13180 6988 23005 1 149.00000 418.400000
13181 6989 13395 1 149.00000 418.400000
13181 6990 14753 1 149.00000 418.400000
13182 6991 15309 1 149.00000 418.400000
13182 6992 15925 1 149.00000 418.400000
13183 6993 15775 1 149.00000 418.400000
13183 6994 16019 1 149.00000 418.400000
13184 6995 13685 1 149.00000 418.400000
13184 6996 14252 1 149.00000 418.400000
13185 6997 23281 1 149.00000 418.400000
13186 6998 13802 1 149.00000 418.400000
13186 6999 13414 1 149.00000 418.400000
13187 7000 15464 1 149.00000 418.400000
13620 7001 22165 1 149.00000 418.400000
11415 7002 13188 1 149.00000 418.400000
13189 7003 15420 1 149.00000 418.400000
13189 7004 15897 1 149.00000 418.400000
13189 7005 15169 1 149.00000 418.400000
13190 7006 15205 1 149.00000 418.400000
13191 7007 14875 1 149.00000 418.400000
13191 7008 20773 1 149.00000 418.400000
13191 7009 14481 1 149.00000 418.400000
13192 7010 14118 1 149.00000 418.400000
13192 7011 15374 1 149.00000 418.400000
13192 7012 14667 1 149.00000 418.400000
13193 7013 14789 1 149.00000 418.400000
13193 7014 14135 1 149.00000 418.400000
13193 7015 15771 1 149.00000 418.400000
13193 7016 15352 1 149.00000 418.400000
13194 7017 15330 1 149.00000 418.400000
13194 7018 16085 1 149.00000 418.400000
14403 7019 19669 1 149.00000 418.400000
16409 7020 19669 1 149.00000 418.400000
13195 7021 15657 1 149.00000 418.400000
13195 7022 13335 1 149.00000 418.400000
13195 7023 16093 1 149.00000 418.400000
13196 7024 15448 1 149.00000 418.400000
13196 7025 13909 1 149.00000 418.400000
13196 7026 15301 1 149.00000 418.400000
13196 7027 15595 1 149.00000 418.400000
13197 7028 13680 1 149.00000 418.400000
13197 7029 14785 1 149.00000 418.400000
13197 7030 16043 1 149.00000 418.400000
13197 7031 13242 1 149.00000 418.400000
13198 7032 15500 1 149.00000 418.400000
13198 7033 15637 1 149.00000 418.400000
13198 7034 14239 1 149.00000 418.400000
13199 7035 13881 1 149.00000 418.400000
13199 7036 14975 1 149.00000 418.400000
13199 7037 24304 1 149.00000 418.400000
13200 7038 15881 1 149.00000 418.400000
13200 7039 14902 1 149.00000 418.400000
13200 7040 14181 1 149.00000 418.400000
13200 7041 15939 1 149.00000 418.400000
13201 7042 15078 1 149.00000 418.400000
13201 7043 14968 1 149.00000 418.400000
13202 7044 14193 1 149.00000 418.400000
13202 7045 14067 1 149.00000 418.400000
13202 7046 14989 1 149.00000 418.400000
13203 7047 15710 1 149.00000 418.400000
13203 7048 13589 1 149.00000 418.400000
13203 7049 14048 1 149.00000 418.400000
13203 7050 14565 1 149.00000 418.400000
13204 7051 14764 1 149.00000 418.400000
15748 7052 22801 1 149.00000 418.400000
13205 7053 14006 1 149.00000 418.400000
13205 7054 13468 1 149.00000 418.400000
13206 7055 16207 1 149.00000 418.400000
13207 7056 16227 1 149.00000 418.400000
13207 7057 14024 1 149.00000 418.400000
13208 7058 13798 1 149.00000 418.400000
13208 7059 13999 1 149.00000 418.400000
13208 7060 15763 1 149.00000 418.400000
13209 7061 14083 1 149.00000 418.400000
13209 7062 14961 1 149.00000 418.400000
14083 7063 15429 1 149.00000 418.400000
13209 7064 16927 1 149.00000 418.400000
13210 7065 15185 1 149.00000 418.400000
13210 7066 20245 1 149.00000 418.400000
13211 7067 14267 1 149.00000 418.400000
13211 7068 15466 1 149.00000 418.400000
13211 7069 14748 1 149.00000 418.400000
13211 7070 14079 1 149.00000 418.400000
13212 7071 15540 1 149.00000 418.400000
13212 7072 16045 1 149.00000 418.400000
13212 7073 24088 1 149.00000 418.400000
13213 7074 14734 1 149.00000 418.400000
13213 7075 13832 1 149.00000 418.400000
13213 7076 15448 1 149.00000 418.400000
13214 7077 14591 1 149.00000 418.400000
13214 7078 15140 1 149.00000 418.400000
13215 7079 15628 1 149.00000 418.400000
13215 7080 14355 1 149.00000 418.400000
13215 7081 15036 1 149.00000 418.400000
14355 7082 15814 1 149.00000 418.400000
13216 7083 14312 1 149.00000 418.400000
13216 7084 13370 1 149.00000 418.400000
12226 7085 13217 1 149.00000 418.400000
13217 7086 14616 1 149.00000 418.400000
13218 7087 14351 1 149.00000 418.400000
13218 7088 13923 1 149.00000 418.400000
13218 7089 14189 1 149.00000 418.400000
13219 7090 15706 1 149.00000 418.400000
13332 7091 15749 1 149.00000 418.400000
13219 7092 15749 1 149.00000 418.400000
13219 7093 13351 1 149.00000 418.400000
13220 7094 20257 1 149.00000 418.400000
13221 7095 15854 1 149.00000 418.400000
13221 7096 15505 1 149.00000 418.400000
13221 7097 15995 1 149.00000 418.400000
14359 7098 19897 1 149.00000 418.400000
13222 7099 21529 1 149.00000 418.400000
13222 7100 14354 1 149.00000 418.400000
13223 7101 14631 1 149.00000 418.400000
13223 7102 14417 1 149.00000 418.400000
13224 7103 13518 1 149.00000 418.400000
13224 7104 13917 1 149.00000 418.400000
13225 7105 15957 1 149.00000 418.400000
13225 7106 14171 1 149.00000 418.400000
13225 7107 14951 1 149.00000 418.400000
13226 7108 15755 1 149.00000 418.400000
13226 7109 14662 1 149.00000 418.400000
13226 7110 14826 1 149.00000 418.400000
13226 7111 15873 1 149.00000 418.400000
16251 7112 23911 1 149.00000 418.400000
23089 7113 23911 1 149.00000 418.400000
14663 7114 23911 1 149.00000 418.400000
13227 7115 14910 1 149.00000 418.400000
13227 7116 15573 1 149.00000 418.400000
13227 7117 15163 1 149.00000 418.400000
13228 7118 14433 1 149.00000 418.400000
13228 7119 14887 1 149.00000 418.400000
13228 7120 14693 1 149.00000 418.400000
13229 7121 15420 1 149.00000 418.400000
13229 7122 13703 1 149.00000 418.400000
13229 7123 13263 1 149.00000 418.400000
13230 7124 14405 1 149.00000 418.400000
13230 7125 15591 1 149.00000 418.400000
14405 7126 23437 1 149.00000 418.400000
13231 7127 15499 1 149.00000 418.400000
13231 7128 13410 1 149.00000 418.400000
13231 7129 13304 1 149.00000 418.400000
13231 7130 15802 1 149.00000 418.400000
13232 7131 15603 1 149.00000 418.400000
14515 7132 15603 1 149.00000 418.400000
13233 7133 14457 1 149.00000 418.400000
13233 7134 16122 1 149.00000 418.400000
13234 7135 13418 1 149.00000 418.400000
13234 7136 13554 1 149.00000 418.400000
13234 7137 15103 1 149.00000 418.400000
13235 7138 14588 1 149.00000 418.400000
13235 7139 14437 1 149.00000 418.400000
13235 7140 15720 1 149.00000 418.400000
21517 7141 23914 1 149.00000 418.400000
23914 7142 23998 1 149.00000 418.400000
13236 7143 13379 1 149.00000 418.400000
12647 7144 14153 1 149.00000 418.400000
13236 7145 14796 1 149.00000 418.400000
13237 7146 14437 1 149.00000 418.400000
13237 7147 15574 1 149.00000 418.400000
13237 7148 15694 1 149.00000 418.400000
13238 7149 14688 1 149.00000 418.400000
13238 7150 16125 1 149.00000 418.400000
13238 7151 13302 1 149.00000 418.400000
13239 7152 14824 1 149.00000 418.400000
13767 7153 23341 1 149.00000 418.400000
16049 7154 23341 1 149.00000 418.400000
13240 7155 15746 1 149.00000 418.400000
13240 7156 14976 1 149.00000 418.400000
13240 7157 15451 1 149.00000 418.400000
13241 7158 14229 1 149.00000 418.400000
13241 7159 13970 1 149.00000 418.400000
13241 7160 15711 1 149.00000 418.400000
13241 7161 15016 1 149.00000 418.400000
13242 7162 13532 1 149.00000 418.400000
13242 7163 15705 1 149.00000 418.400000
13243 7164 15629 1 149.00000 418.400000
13243 7165 14213 1 149.00000 418.400000
13243 7166 14142 1 149.00000 418.400000
13244 7167 14654 1 149.00000 418.400000
14367 7168 19381 1 149.00000 418.400000
13500 7169 19381 1 149.00000 418.400000
19381 7170 23209 1 149.00000 418.400000
15188 7171 24392 1 149.00000 418.400000
13245 7172 15155 1 149.00000 418.400000
13245 7173 13525 1 149.00000 418.400000
13245 7174 15519 1 149.00000 418.400000
13246 7175 16165 1 149.00000 418.400000
13246 7176 14589 1 149.00000 418.400000
11720 7177 13246 1 149.00000 418.400000
13247 7178 13509 1 149.00000 418.400000
13247 7179 15241 1 149.00000 418.400000
19825 7180 22141 1 149.00000 418.400000
13248 7181 13356 1 149.00000 418.400000
13248 7182 13596 1 149.00000 418.400000
13249 7183 15489 1 149.00000 418.400000
13250 7184 14701 1 149.00000 418.400000
13250 7185 13792 1 149.00000 418.400000
13251 7186 13507 1 149.00000 418.400000
13251 7187 15343 1 149.00000 418.400000
13251 7188 13621 1 149.00000 418.400000
13251 7189 13421 1 149.00000 418.400000
13252 7190 15883 1 149.00000 418.400000
13252 7191 13683 1 149.00000 418.400000
13252 7192 15993 1 149.00000 418.400000
13252 7193 13279 1 149.00000 418.400000
12777 7194 13253 1 149.00000 418.400000
13253 7195 15492 1 149.00000 418.400000
13255 7196 14364 1 149.00000 418.400000
13255 7197 15949 1 149.00000 418.400000
21733 7198 22933 1 149.00000 418.400000
13256 7199 15646 1 149.00000 418.400000
13256 7200 23245 1 149.00000 418.400000
13257 7201 13537 1 149.00000 418.400000
13257 7202 14102 1 149.00000 418.400000
13258 7203 15278 1 149.00000 418.400000
13258 7204 14403 1 149.00000 418.400000
13259 7205 14757 1 149.00000 418.400000
13259 7206 14119 1 149.00000 418.400000
13260 7207 15319 1 149.00000 418.400000
13260 7208 13584 1 149.00000 418.400000
13261 7209 21001 1 149.00000 418.400000
13263 7210 15210 1 149.00000 418.400000
13263 7211 15794 1 149.00000 418.400000
13263 7212 13451 1 149.00000 418.400000
13264 7213 13662 1 149.00000 418.400000
13265 7214 14002 1 149.00000 418.400000
13265 7215 13907 1 149.00000 418.400000
14002 7216 15999 1 149.00000 418.400000
13266 7217 13744 1 149.00000 418.400000
13267 7218 22777 1 149.00000 418.400000
13267 7219 19417 1 149.00000 418.400000
13267 7220 15359 1 149.00000 418.400000
13267 7221 15396 1 149.00000 418.400000
15591 7222 23917 1 149.00000 418.400000
13293 7223 23917 1 149.00000 418.400000
13962 7224 14038 1 149.00000 418.400000
13268 7225 14038 1 149.00000 418.400000
13268 7226 16089 1 149.00000 418.400000
13269 7227 14169 1 149.00000 418.400000
13270 7228 15608 1 149.00000 418.400000
13270 7229 15971 1 149.00000 418.400000
13270 7230 14547 1 149.00000 418.400000
13270 7231 13304 1 149.00000 418.400000
13271 7232 21685 1 149.00000 418.400000
12973 7233 13271 1 149.00000 418.400000
13271 7234 14319 1 149.00000 418.400000
13272 7235 14179 1 149.00000 418.400000
13272 7236 14548 1 149.00000 418.400000
14685 7237 15675 1 149.00000 418.400000
13273 7238 14474 1 149.00000 418.400000
13273 7239 13568 1 149.00000 418.400000
15804 7240 16210 1 149.00000 418.400000
13274 7241 15804 1 149.00000 418.400000
13274 7242 16241 1 149.00000 418.400000
13275 7243 14342 1 149.00000 418.400000
13275 7244 15927 1 149.00000 418.400000
13276 7245 16009 1 149.00000 418.400000
13276 7246 14138 1 149.00000 418.400000
13277 7247 13328 1 149.00000 418.400000
13277 7248 14930 1 149.00000 418.400000
13277 7249 13351 1 149.00000 418.400000
13277 7250 23401 1 149.00000 418.400000
13278 7251 13858 1 149.00000 418.400000
13649 7252 13858 1 149.00000 418.400000
13279 7253 13345 1 149.00000 418.400000
13280 7254 13631 1 149.00000 418.400000
13281 7255 13760 1 149.00000 418.400000
13281 7256 13474 1 149.00000 418.400000
18457 7257 21553 1 149.00000 418.400000
13282 7258 16169 1 149.00000 418.400000
13282 7259 15543 1 149.00000 418.400000
13283 7260 14414 1 149.00000 418.400000
13283 7261 15107 1 149.00000 418.400000
14513 7262 23920 1 149.00000 418.400000
15697 7263 23920 1 149.00000 418.400000
15562 7264 23920 1 149.00000 418.400000
11873 7265 13284 1 149.00000 418.400000
13284 7266 14039 1 149.00000 418.400000
13285 7267 14862 1 149.00000 418.400000
13292 7268 21625 1 149.00000 418.400000
14093 7269 14952 1 149.00000 418.400000
13287 7270 14952 1 149.00000 418.400000
13288 7271 13370 1 149.00000 418.400000
13288 7272 15082 1 149.00000 418.400000
13288 7273 14328 1 149.00000 418.400000
13288 7274 15149 1 149.00000 418.400000
13289 7275 14115 1 149.00000 418.400000
13289 7276 15465 1 149.00000 418.400000
14248 7277 15757 1 149.00000 418.400000
13290 7278 18601 1 149.00000 418.400000
13290 7279 15757 1 149.00000 418.400000
13290 7280 16003 1 149.00000 418.400000
13291 7281 15144 1 149.00000 418.400000
14793 7282 15144 1 149.00000 418.400000
12883 7283 13311 1 149.00000 418.400000
13292 7284 13318 1 149.00000 418.400000
13292 7285 21577 1 149.00000 418.400000
13292 7286 17949 1 149.00000 418.400000
13293 7287 19957 1 149.00000 418.400000
19957 7288 21385 1 149.00000 418.400000
13294 7289 15435 1 149.00000 418.400000
13294 7290 14865 1 149.00000 418.400000
15435 7291 19621 1 149.00000 418.400000
13295 7292 14186 1 149.00000 418.400000
13295 7293 15261 1 149.00000 418.400000
13295 7294 15780 1 149.00000 418.400000
13296 7295 14277 1 149.00000 418.400000
13296 7296 14480 1 149.00000 418.400000
13296 7297 13896 1 149.00000 418.400000
13298 7298 13810 1 149.00000 418.400000
13298 7299 14562 1 149.00000 418.400000
13298 7300 15860 1 149.00000 418.400000
19597 7301 23245 1 149.00000 418.400000
18201 7302 19597 1 149.00000 418.400000
13299 7303 14953 1 149.00000 418.400000
13299 7304 16210 1 149.00000 418.400000
13299 7305 14767 1 149.00000 418.400000
13300 7306 15036 1 149.00000 418.400000
13300 7307 13669 1 149.00000 418.400000
12959 7308 13300 1 149.00000 418.400000
13301 7309 20305 1 149.00000 418.400000
13301 7310 13355 1 149.00000 418.400000
13301 7311 16563 1 149.00000 418.400000
13301 7312 15142 1 149.00000 418.400000
13302 7313 14915 1 149.00000 418.400000
13302 7314 14925 1 149.00000 418.400000
13303 7315 14606 1 149.00000 418.400000
13303 7316 15064 1 149.00000 418.400000
13305 7317 13695 1 149.00000 418.400000
13305 7318 15732 1 149.00000 418.400000
11571 7319 15777 1 149.00000 418.400000
11571 7320 14224 1 149.00000 418.400000
13307 7321 13666 1 149.00000 418.400000
13307 7322 16097 1 149.00000 418.400000
13308 7323 15253 1 149.00000 418.400000
13308 7324 15244 1 149.00000 418.400000
13990 7325 15253 1 149.00000 418.400000
13499 7326 15095 1 149.00000 418.400000
13310 7327 14240 1 149.00000 418.400000
13310 7328 13499 1 149.00000 418.400000
13311 7329 15342 1 149.00000 418.400000
13312 7330 14731 1 149.00000 418.400000
13313 7331 16272 1 149.00000 418.400000
13313 7332 14304 1 149.00000 418.400000
13313 7333 14202 1 149.00000 418.400000
13314 7334 14126 1 149.00000 418.400000
13314 7335 15722 1 149.00000 418.400000
13314 7336 16116 1 149.00000 418.400000
13314 7337 15140 1 149.00000 418.400000
13315 7338 15990 1 149.00000 418.400000
13315 7339 14227 1 149.00000 418.400000
13315 7340 14786 1 149.00000 418.400000
16213 7341 19069 1 149.00000 418.400000
13316 7342 19069 1 149.00000 418.400000
13316 7343 24202 1 149.00000 418.400000
13316 7344 15191 1 149.00000 418.400000
13317 7345 15657 1 149.00000 418.400000
13317 7346 14462 1 149.00000 418.400000
13317 7347 16174 1 149.00000 418.400000
13318 7348 16237 1 149.00000 418.400000
13318 7349 16187 1 149.00000 418.400000
13318 7350 15747 1 149.00000 418.400000
13319 7351 13422 1 149.00000 418.400000
13319 7352 14184 1 149.00000 418.400000
13319 7353 16215 1 149.00000 418.400000
13320 7354 14892 1 149.00000 418.400000
13320 7355 15406 1 149.00000 418.400000
13320 7356 14053 1 149.00000 418.400000
13321 7357 15862 1 149.00000 418.400000
13094 7358 14545 1 149.00000 418.400000
13094 7359 13321 1 149.00000 418.400000
13322 7360 16038 1 149.00000 418.400000
13322 7361 14557 1 149.00000 418.400000
13322 7362 15743 1 149.00000 418.400000
13323 7363 17249 1 149.00000 418.400000
13323 7364 23956 1 149.00000 418.400000
13323 7365 14859 1 149.00000 418.400000
13324 7366 15303 1 149.00000 418.400000
13325 7367 13494 1 149.00000 418.400000
11288 7368 16029 1 149.00000 418.400000
14009 7369 23113 1 149.00000 418.400000
13326 7370 13713 1 149.00000 418.400000
11522 7371 14292 1 149.00000 418.400000
13326 7372 15627 1 149.00000 418.400000
11535 7373 13101 1 149.00000 418.400000
13327 7374 14405 1 149.00000 418.400000
14081 7375 23926 1 149.00000 418.400000
20617 7376 23926 1 149.00000 418.400000
13329 7377 15208 1 149.00000 418.400000
13329 7378 16146 1 149.00000 418.400000
13329 7379 13679 1 149.00000 418.400000
13329 7380 15002 1 149.00000 418.400000
13330 7381 14096 1 149.00000 418.400000
13330 7382 16117 1 149.00000 418.400000
13331 7383 15328 1 149.00000 418.400000
13333 7384 14292 1 149.00000 418.400000
13333 7385 14993 1 149.00000 418.400000
13333 7386 13521 1 149.00000 418.400000
13333 7387 15395 1 149.00000 418.400000
13334 7388 15821 1 149.00000 418.400000
13334 7389 13651 1 149.00000 418.400000
13335 7390 15662 1 149.00000 418.400000
13335 7391 14749 1 149.00000 418.400000
13336 7392 14203 1 149.00000 418.400000
13336 7393 14275 1 149.00000 418.400000
13337 7394 13898 1 149.00000 418.400000
13337 7395 14632 1 149.00000 418.400000
13337 7396 15393 1 149.00000 418.400000
13338 7397 13798 1 149.00000 418.400000
13338 7398 13441 1 149.00000 418.400000
16955 7399 21013 1 149.00000 418.400000
16240 7400 16955 1 149.00000 418.400000
13339 7401 14539 1 149.00000 418.400000
13339 7402 13991 1 149.00000 418.400000
13339 7403 13409 1 149.00000 418.400000
13339 7404 15260 1 149.00000 418.400000
13340 7405 15844 1 149.00000 418.400000
13340 7406 13894 1 149.00000 418.400000
13340 7407 15551 1 149.00000 418.400000
13341 7408 15470 1 149.00000 418.400000
12238 7409 13349 1 149.00000 418.400000
14254 7410 15470 1 149.00000 418.400000
13342 7411 15766 1 149.00000 418.400000
13342 7412 13965 1 149.00000 418.400000
13342 7413 14604 1 149.00000 418.400000
13343 7414 13945 1 149.00000 418.400000
13344 7415 14218 1 149.00000 418.400000
13344 7416 14483 1 149.00000 418.400000
13345 7417 15758 1 149.00000 418.400000
12662 7418 13346 1 149.00000 418.400000
13346 7419 13638 1 149.00000 418.400000
13346 7420 14125 1 149.00000 418.400000
13347 7421 15330 1 149.00000 418.400000
13347 7422 13612 1 149.00000 418.400000
13348 7423 15602 1 149.00000 418.400000
13349 7424 14770 1 149.00000 418.400000
13349 7425 16230 1 149.00000 418.400000
13349 7426 13558 1 149.00000 418.400000
13350 7427 16759 1 149.00000 418.400000
13350 7428 13774 1 149.00000 418.400000
13350 7429 15214 1 149.00000 418.400000
13351 7430 15132 1 149.00000 418.400000
11966 7431 15078 1 149.00000 418.400000
13351 7432 15078 1 149.00000 418.400000
13352 7433 14191 1 149.00000 418.400000
13353 7434 15207 1 149.00000 418.400000
13353 7435 15571 1 149.00000 418.400000
13353 7436 13386 1 149.00000 418.400000
13354 7437 15299 1 149.00000 418.400000
13354 7438 14923 1 149.00000 418.400000
13354 7439 16170 1 149.00000 418.400000
13355 7440 19993 1 149.00000 418.400000
13355 7441 18829 1 149.00000 418.400000
13356 7442 15965 1 149.00000 418.400000
13357 7443 14850 1 149.00000 418.400000
13357 7444 14329 1 149.00000 418.400000
13357 7445 14297 1 149.00000 418.400000
13095 7446 14689 1 149.00000 418.400000
13359 7447 16180 1 149.00000 418.400000
13359 7448 14227 1 149.00000 418.400000
13360 7449 14017 1 149.00000 418.400000
13360 7450 13966 1 149.00000 418.400000
12482 7451 13738 1 149.00000 418.400000
13361 7452 13633 1 149.00000 418.400000
13361 7453 13503 1 149.00000 418.400000
13362 7454 16267 1 149.00000 418.400000
13362 7455 15007 1 149.00000 418.400000
13362 7456 14316 1 149.00000 418.400000
13363 7457 22573 1 149.00000 418.400000
13363 7458 15485 1 149.00000 418.400000
13364 7459 15370 1 149.00000 418.400000
13364 7460 14392 1 149.00000 418.400000
13364 7461 15477 1 149.00000 418.400000
13365 7462 14480 1 149.00000 418.400000
13365 7463 16011 1 149.00000 418.400000
13366 7464 15927 1 149.00000 418.400000
13366 7465 13748 1 149.00000 418.400000
13366 7466 14908 1 149.00000 418.400000
13367 7467 13842 1 149.00000 418.400000
13367 7468 14327 1 149.00000 418.400000
13258 7469 13368 1 149.00000 418.400000
13970 7470 20245 1 149.00000 418.400000
13369 7471 15904 1 149.00000 418.400000
15768 7472 20521 1 149.00000 418.400000
13370 7473 15762 1 149.00000 418.400000
13371 7474 14530 1 149.00000 418.400000
13371 7475 14898 1 149.00000 418.400000
13371 7476 14759 1 149.00000 418.400000
13044 7477 13371 1 149.00000 418.400000
13372 7478 14939 1 149.00000 418.400000
13373 7479 13467 1 149.00000 418.400000
13373 7480 13808 1 149.00000 418.400000
13374 7481 14148 1 149.00000 418.400000
13374 7482 15284 1 149.00000 418.400000
13374 7483 13406 1 149.00000 418.400000
13375 7484 14935 1 149.00000 418.400000
14428 7485 19057 1 149.00000 418.400000
15664 7486 19057 1 149.00000 418.400000
13376 7487 14001 1 149.00000 418.400000
13376 7488 15003 1 149.00000 418.400000
13376 7489 14559 1 149.00000 418.400000
13377 7490 21013 1 149.00000 418.400000
13377 7491 13469 1 149.00000 418.400000
13377 7492 13501 1 149.00000 418.400000
13378 7493 22117 1 149.00000 418.400000
13378 7494 15089 1 149.00000 418.400000
13379 7495 14139 1 149.00000 418.400000
13379 7496 13937 1 149.00000 418.400000
13396 7497 18385 1 149.00000 418.400000
13380 7498 14103 1 149.00000 418.400000
13380 7499 15327 1 149.00000 418.400000
13380 7500 13682 1 149.00000 418.400000
13380 7501 13882 1 149.00000 418.400000
13381 7502 15048 1 149.00000 418.400000
13381 7503 14054 1 149.00000 418.400000
13381 7504 14048 1 149.00000 418.400000
13382 7505 15549 1 149.00000 418.400000
13156 7506 13382 1 149.00000 418.400000
14290 7507 14849 1 149.00000 418.400000
13383 7508 14290 1 149.00000 418.400000
13383 7509 14719 1 149.00000 418.400000
17809 7510 23989 1 149.00000 418.400000
13384 7511 13921 1 149.00000 418.400000
11940 7512 13384 1 149.00000 418.400000
13922 7513 15671 1 149.00000 418.400000
13601 7514 13922 1 149.00000 418.400000
13385 7515 14703 1 149.00000 418.400000
13386 7516 13567 1 149.00000 418.400000
13386 7517 15666 1 149.00000 418.400000
13387 7518 14103 1 149.00000 418.400000
13387 7519 15117 1 149.00000 418.400000
13388 7520 15197 1 149.00000 418.400000
13388 7521 15155 1 149.00000 418.400000
15155 7522 15967 1 149.00000 418.400000
13389 7523 16112 1 149.00000 418.400000
13389 7524 14578 1 149.00000 418.400000
13389 7525 13807 1 149.00000 418.400000
13390 7526 15858 1 149.00000 418.400000
13390 7527 14788 1 149.00000 418.400000
12766 7528 17921 1 149.00000 418.400000
13657 7529 17921 1 149.00000 418.400000
13391 7530 14596 1 149.00000 418.400000
13391 7531 15985 1 149.00000 418.400000
13391 7532 15131 1 149.00000 418.400000
13392 7533 13640 1 149.00000 418.400000
13392 7534 14403 1 149.00000 418.400000
13393 7535 16192 1 149.00000 418.400000
13394 7536 15893 1 149.00000 418.400000
13394 7537 16124 1 149.00000 418.400000
13395 7538 15239 1 149.00000 418.400000
13396 7539 16082 1 149.00000 418.400000
13396 7540 14998 1 149.00000 418.400000
13397 7541 15710 1 149.00000 418.400000
13397 7542 15298 1 149.00000 418.400000
13397 7543 13968 1 149.00000 418.400000
13398 7544 15521 1 149.00000 418.400000
13399 7545 15679 1 149.00000 418.400000
13399 7546 20629 1 149.00000 418.400000
13401 7547 13559 1 149.00000 418.400000
13402 7548 13964 1 149.00000 418.400000
13402 7549 13638 1 149.00000 418.400000
13402 7550 14992 1 149.00000 418.400000
13403 7551 24277 1 149.00000 418.400000
13403 7552 16257 1 149.00000 418.400000
13404 7553 14621 1 149.00000 418.400000
13404 7554 16226 1 149.00000 418.400000
13405 7555 13955 1 149.00000 418.400000
13406 7556 14713 1 149.00000 418.400000
13406 7557 14540 1 149.00000 418.400000
13406 7558 14025 1 149.00000 418.400000
13664 7559 17361 1 149.00000 418.400000
13407 7560 15268 1 149.00000 418.400000
13407 7561 16154 1 149.00000 418.400000
13407 7562 14479 1 149.00000 418.400000
13407 7563 13611 1 149.00000 418.400000
13408 7564 14885 1 149.00000 418.400000
13408 7565 13517 1 149.00000 418.400000
13409 7566 15623 1 149.00000 418.400000
13410 7567 14331 1 149.00000 418.400000
14331 7568 15958 1 149.00000 418.400000
13410 7569 13779 1 149.00000 418.400000
13920 7570 14393 1 149.00000 418.400000
13411 7571 13920 1 149.00000 418.400000
13411 7572 14196 1 149.00000 418.400000
13412 7573 14337 1 149.00000 418.400000
13412 7574 15030 1 149.00000 418.400000
13412 7575 15699 1 149.00000 418.400000
13415 7576 14012 1 149.00000 418.400000
13415 7577 15218 1 149.00000 418.400000
13416 7578 14659 1 149.00000 418.400000
13417 7579 14456 1 149.00000 418.400000
13417 7580 20701 1 149.00000 418.400000
13417 7581 14974 1 149.00000 418.400000
13418 7582 14912 1 149.00000 418.400000
13419 7583 16042 1 149.00000 418.400000
13420 7584 14025 1 149.00000 418.400000
13420 7585 14856 1 149.00000 418.400000
13421 7586 15764 1 149.00000 418.400000
13421 7587 16123 1 149.00000 418.400000
13422 7588 15474 1 149.00000 418.400000
13422 7589 13871 1 149.00000 418.400000
13422 7590 13518 1 149.00000 418.400000
13423 7591 14328 1 149.00000 418.400000
13423 7592 15985 1 149.00000 418.400000
13423 7593 15239 1 149.00000 418.400000
13424 7594 14822 1 149.00000 418.400000
13424 7595 14334 1 149.00000 418.400000
13424 7596 14471 1 149.00000 418.400000
13425 7597 13634 1 149.00000 418.400000
13425 7598 16095 1 149.00000 418.400000
13426 7599 15679 1 149.00000 418.400000
13426 7600 13780 1 149.00000 418.400000
13427 7601 13431 1 149.00000 418.400000
13427 7602 15266 1 149.00000 418.400000
13904 7603 14919 1 149.00000 418.400000
13428 7604 14851 1 149.00000 418.400000
13428 7605 14919 1 149.00000 418.400000
13428 7606 14745 1 149.00000 418.400000
13429 7607 15503 1 149.00000 418.400000
13430 7608 14205 1 149.00000 418.400000
13430 7609 14916 1 149.00000 418.400000
13431 7610 15171 1 149.00000 418.400000
13432 7611 13777 1 149.00000 418.400000
13887 7612 24208 1 149.00000 418.400000
13433 7613 24208 1 149.00000 418.400000
13433 7614 23839 1 149.00000 418.400000
13434 7615 15563 1 149.00000 418.400000
13434 7616 16252 1 149.00000 418.400000
13434 7617 14738 1 149.00000 418.400000
13436 7618 13799 1 149.00000 418.400000
13436 7619 13689 1 149.00000 418.400000
13436 7620 14320 1 149.00000 418.400000
13437 7621 15992 1 149.00000 418.400000
13437 7622 14274 1 149.00000 418.400000
13437 7623 14903 1 149.00000 418.400000
22045 7624 23938 1 149.00000 418.400000
19237 7625 23938 1 149.00000 418.400000
14584 7626 23938 1 149.00000 418.400000
21001 7627 24301 1 149.00000 418.400000
14448 7628 21001 1 149.00000 418.400000
13438 7629 14761 1 149.00000 418.400000
13438 7630 15195 1 149.00000 418.400000
13438 7631 15976 1 149.00000 418.400000
13439 7632 14436 1 149.00000 418.400000
13439 7633 14862 1 149.00000 418.400000
13439 7634 15706 1 149.00000 418.400000
13439 7635 14930 1 149.00000 418.400000
15193 7636 24402 1 149.00000 418.400000
13440 7637 13809 1 149.00000 418.400000
13440 7638 18853 1 149.00000 418.400000
13440 7639 15791 1 149.00000 418.400000
13441 7640 14278 1 149.00000 418.400000
13441 7641 14221 1 149.00000 418.400000
13442 7642 15737 1 149.00000 418.400000
13442 7643 15879 1 149.00000 418.400000
14147 7644 15481 1 149.00000 418.400000
13443 7645 15481 1 149.00000 418.400000
11750 7646 13443 1 149.00000 418.400000
13444 7647 15183 1 149.00000 418.400000
13444 7648 13676 1 149.00000 418.400000
13445 7649 15763 1 149.00000 418.400000
13445 7650 13522 1 149.00000 418.400000
13446 7651 14272 1 149.00000 418.400000
13446 7652 15039 1 149.00000 418.400000
13446 7653 14008 1 149.00000 418.400000
13447 7654 16148 1 149.00000 418.400000
12716 7655 15584 1 149.00000 418.400000
13448 7656 14946 1 149.00000 418.400000
13449 7657 24004 1 149.00000 418.400000
12320 7658 14759 1 149.00000 418.400000
13450 7659 14451 1 149.00000 418.400000
13450 7660 15353 1 149.00000 418.400000
16857 7661 24106 1 149.00000 418.400000
13552 7662 16857 1 149.00000 418.400000
11706 7663 24106 1 149.00000 418.400000
14300 7664 23941 1 149.00000 418.400000
14262 7665 23944 1 149.00000 418.400000
20137 7666 23944 1 149.00000 418.400000
13452 7667 14970 1 149.00000 418.400000
13453 7668 15370 1 149.00000 418.400000
11362 7669 13926 1 149.00000 418.400000
12837 7670 15854 1 149.00000 418.400000
13454 7671 15951 1 149.00000 418.400000
14705 7672 15951 1 149.00000 418.400000
13455 7673 14745 1 149.00000 418.400000
12727 7674 13456 1 149.00000 418.400000
13457 7675 15006 1 149.00000 418.400000
13457 7676 15378 1 149.00000 418.400000
13457 7677 14889 1 149.00000 418.400000
13458 7678 14552 1 149.00000 418.400000
13458 7679 15606 1 149.00000 418.400000
13458 7680 14536 1 149.00000 418.400000
13459 7681 14981 1 149.00000 418.400000
13459 7682 14183 1 149.00000 418.400000
13460 7683 14287 1 149.00000 418.400000
13460 7684 16130 1 149.00000 418.400000
13460 7685 15543 1 149.00000 418.400000
14475 7686 19585 1 149.00000 418.400000
13751 7687 22525 1 149.00000 418.400000
15091 7688 22525 1 149.00000 418.400000
13462 7689 15147 1 149.00000 418.400000
13462 7690 15977 1 149.00000 418.400000
13463 7691 15507 1 149.00000 418.400000
13463 7692 15906 1 149.00000 418.400000
14483 7693 15231 1 149.00000 418.400000
13464 7694 13783 1 149.00000 418.400000
13464 7695 14483 1 149.00000 418.400000
13464 7696 15829 1 149.00000 418.400000
13465 7697 16208 1 149.00000 418.400000
13465 7698 14303 1 149.00000 418.400000
14112 7699 16208 1 149.00000 418.400000
13466 7700 16036 1 149.00000 418.400000
13466 7701 15424 1 149.00000 418.400000
13467 7702 15599 1 149.00000 418.400000
13467 7703 14232 1 149.00000 418.400000
13468 7704 14987 1 149.00000 418.400000
13468 7705 15508 1 149.00000 418.400000
13469 7706 13906 1 149.00000 418.400000
13469 7707 14459 1 149.00000 418.400000
13470 7708 20005 1 149.00000 418.400000
13470 7709 15328 1 149.00000 418.400000
13470 7710 14938 1 149.00000 418.400000
22849 7711 24217 1 149.00000 418.400000
14105 7712 22849 1 149.00000 418.400000
13471 7713 15199 1 149.00000 418.400000
13471 7714 20413 1 149.00000 418.400000
13472 7715 16080 1 149.00000 418.400000
13472 7716 15834 1 149.00000 418.400000
13472 7717 14388 1 149.00000 418.400000
13473 7718 16173 1 149.00000 418.400000
13473 7719 15056 1 149.00000 418.400000
13473 7720 15375 1 149.00000 418.400000
13474 7721 14459 1 149.00000 418.400000
13475 7722 13717 1 149.00000 418.400000
13475 7723 15771 1 149.00000 418.400000
13475 7724 14109 1 149.00000 418.400000
13475 7725 14861 1 149.00000 418.400000
13476 7726 14300 1 149.00000 418.400000
13476 7727 15568 1 149.00000 418.400000
13476 7728 14279 1 149.00000 418.400000
13477 7729 16131 1 149.00000 418.400000
13477 7730 14755 1 149.00000 418.400000
13478 7731 14269 1 149.00000 418.400000
13479 7732 24447 1 149.00000 418.400000
13479 7733 15640 1 149.00000 418.400000
13479 7734 15335 1 149.00000 418.400000
13480 7735 15597 1 149.00000 418.400000
13480 7736 14495 1 149.00000 418.400000
13480 7737 13800 1 149.00000 418.400000
13481 7738 14654 1 149.00000 418.400000
13171 7739 14468 1 149.00000 418.400000
11437 7740 13481 1 149.00000 418.400000
13482 7741 21985 1 149.00000 418.400000
13482 7742 24052 1 149.00000 418.400000
13482 7743 14227 1 149.00000 418.400000
13482 7744 15374 1 149.00000 418.400000
13483 7745 15672 1 149.00000 418.400000
13484 7746 15044 1 149.00000 418.400000
13484 7747 14344 1 149.00000 418.400000
13484 7748 14129 1 149.00000 418.400000
13484 7749 15206 1 149.00000 418.400000
13486 7750 15627 1 149.00000 418.400000
13486 7751 14993 1 149.00000 418.400000
13487 7752 15685 1 149.00000 418.400000
13487 7753 15361 1 149.00000 418.400000
13487 7754 15630 1 149.00000 418.400000
13488 7755 16205 1 149.00000 418.400000
13488 7756 14999 1 149.00000 418.400000
13488 7757 16176 1 149.00000 418.400000
13489 7758 15642 1 149.00000 418.400000
12346 7759 16125 1 149.00000 418.400000
13490 7760 15420 1 149.00000 418.400000
12538 7761 15849 1 149.00000 418.400000
13492 7762 23956 1 149.00000 418.400000
23947 7763 23956 1 149.00000 418.400000
13492 7764 15590 1 149.00000 418.400000
11634 7765 16240 1 149.00000 418.400000
13493 7766 14922 1 149.00000 418.400000
13493 7767 14459 1 149.00000 418.400000
13494 7768 14586 1 149.00000 418.400000
14707 7769 20473 1 149.00000 418.400000
18243 7770 20473 1 149.00000 418.400000
13495 7771 15944 1 149.00000 418.400000
13495 7772 16297 1 149.00000 418.400000
11416 7773 13495 1 149.00000 418.400000
14310 7774 15417 1 149.00000 418.400000
13496 7775 14572 1 149.00000 418.400000
13496 7776 15417 1 149.00000 418.400000
13497 7777 13567 1 149.00000 418.400000
13498 7778 16065 1 149.00000 418.400000
13498 7779 14142 1 149.00000 418.400000
13499 7780 14913 1 149.00000 418.400000
13310 7781 14708 1 149.00000 418.400000
13499 7782 16070 1 149.00000 418.400000
22861 7783 23947 1 149.00000 418.400000
14273 7784 15971 1 149.00000 418.400000
14273 7785 23947 1 149.00000 418.400000
13500 7786 14108 1 149.00000 418.400000
13500 7787 15291 1 149.00000 418.400000
13501 7788 24055 1 149.00000 418.400000
13501 7789 15755 1 149.00000 418.400000
13501 7790 16240 1 149.00000 418.400000
13502 7791 14937 1 149.00000 418.400000
13503 7792 15277 1 149.00000 418.400000
13504 7793 14932 1 149.00000 418.400000
13504 7794 16227 1 149.00000 418.400000
13504 7795 14596 1 149.00000 418.400000
13505 7796 15912 1 149.00000 418.400000
13505 7797 13924 1 149.00000 418.400000
13507 7798 15866 1 149.00000 418.400000
13507 7799 13894 1 149.00000 418.400000
13702 7800 20509 1 149.00000 418.400000
13508 7801 15125 1 149.00000 418.400000
13508 7802 15885 1 149.00000 418.400000
13509 7803 14061 1 149.00000 418.400000
13510 7804 15052 1 149.00000 418.400000
22729 7805 23968 1 149.00000 418.400000
19945 7806 22729 1 149.00000 418.400000
13511 7807 24076 1 149.00000 418.400000
13512 7808 14742 1 149.00000 418.400000
13512 7809 13730 1 149.00000 418.400000
13512 7810 14674 1 149.00000 418.400000
13512 7811 15367 1 149.00000 418.400000
13777 7812 24407 1 149.00000 418.400000
16367 7813 24407 1 149.00000 418.400000
13513 7814 15477 1 149.00000 418.400000
13513 7815 13599 1 149.00000 418.400000
13514 7816 15522 1 149.00000 418.400000
13514 7817 15103 1 149.00000 418.400000
20977 7818 24238 1 149.00000 418.400000
15583 7819 20977 1 149.00000 418.400000
12142 7820 14987 1 149.00000 418.400000
13516 7821 15317 1 149.00000 418.400000
13516 7822 14963 1 149.00000 418.400000
13517 7823 13854 1 149.00000 418.400000
13517 7824 16211 1 149.00000 418.400000
13517 7825 15604 1 149.00000 418.400000
13519 7826 15845 1 149.00000 418.400000
13519 7827 16200 1 149.00000 418.400000
13520 7828 15992 1 149.00000 418.400000
13520 7829 15849 1 149.00000 418.400000
13521 7830 16276 1 149.00000 418.400000
13521 7831 14803 1 149.00000 418.400000
16037 7832 16254 1 149.00000 418.400000
13522 7833 16254 1 149.00000 418.400000
13523 7834 24070 1 149.00000 418.400000
13523 7835 14799 1 149.00000 418.400000
13523 7836 24043 1 149.00000 418.400000
13524 7837 14284 1 149.00000 418.400000
13524 7838 14499 1 149.00000 418.400000
13525 7839 13845 1 149.00000 418.400000
13526 7840 14305 1 149.00000 418.400000
13526 7841 13625 1 149.00000 418.400000
21529 7842 23998 1 149.00000 418.400000
21997 7843 24214 1 149.00000 418.400000
13552 7844 21997 1 149.00000 418.400000
15925 7845 21997 1 149.00000 418.400000
13527 7846 14505 1 149.00000 418.400000
13527 7847 13528 1 149.00000 418.400000
13528 7848 14380 1 149.00000 418.400000
13528 7849 15255 1 149.00000 418.400000
13529 7850 14414 1 149.00000 418.400000
15345 7851 24109 1 149.00000 418.400000
13529 7852 15345 1 149.00000 418.400000
13530 7853 15709 1 149.00000 418.400000
13531 7854 15022 1 149.00000 418.400000
13531 7855 13556 1 149.00000 418.400000
13532 7856 15366 1 149.00000 418.400000
13532 7857 14139 1 149.00000 418.400000
13532 7858 15822 1 149.00000 418.400000
13654 7859 23950 1 149.00000 418.400000
13533 7860 23317 1 149.00000 418.400000
13533 7861 24217 1 149.00000 418.400000
13534 7862 23437 1 149.00000 418.400000
13534 7863 16493 1 149.00000 418.400000
13534 7864 16237 1 149.00000 418.400000
12975 7865 13535 1 149.00000 418.400000
13535 7866 14289 1 149.00000 418.400000
13535 7867 14122 1 149.00000 418.400000
13535 7868 16195 1 149.00000 418.400000
13537 7869 15851 1 149.00000 418.400000
13537 7870 13585 1 149.00000 418.400000
13538 7871 15101 1 149.00000 418.400000
13538 7872 14251 1 149.00000 418.400000
13539 7873 15252 1 149.00000 418.400000
13539 7874 15776 1 149.00000 418.400000
13540 7875 14394 1 149.00000 418.400000
13540 7876 13836 1 149.00000 418.400000
13540 7877 15640 1 149.00000 418.400000
13122 7878 13541 1 149.00000 418.400000
13541 7879 15282 1 149.00000 418.400000
13541 7880 15917 1 149.00000 418.400000
13542 7881 15651 1 149.00000 418.400000
13542 7882 15938 1 149.00000 418.400000
13543 7883 14893 1 149.00000 418.400000
13543 7884 15308 1 149.00000 418.400000
13543 7885 13632 1 149.00000 418.400000
13544 7886 15508 1 149.00000 418.400000
13544 7887 15556 1 149.00000 418.400000
13544 7888 14840 1 149.00000 418.400000
13545 7889 16097 1 149.00000 418.400000
13545 7890 15708 1 149.00000 418.400000
13545 7891 14477 1 149.00000 418.400000
13546 7892 13979 1 149.00000 418.400000
13546 7893 14920 1 149.00000 418.400000
13546 7894 13565 1 149.00000 418.400000
13547 7895 15768 1 149.00000 418.400000
13547 7896 15822 1 149.00000 418.400000
13547 7897 18159 1 149.00000 418.400000
13548 7898 14121 1 149.00000 418.400000
13548 7899 14457 1 149.00000 418.400000
13548 7900 15302 1 149.00000 418.400000
13549 7901 14254 1 149.00000 418.400000
13550 7902 16001 1 149.00000 418.400000
13550 7903 14024 1 149.00000 418.400000
13551 7904 15867 1 149.00000 418.400000
13551 7905 13906 1 149.00000 418.400000
13553 7906 14378 1 149.00000 418.400000
13553 7907 13860 1 149.00000 418.400000
22621 7908 24286 1 149.00000 418.400000
13554 7909 24482 1 149.00000 418.400000
13554 7910 23962 1 149.00000 418.400000
13555 7911 16026 1 149.00000 418.400000
13555 7912 14746 1 149.00000 418.400000
13556 7913 13769 1 149.00000 418.400000
13556 7914 14537 1 149.00000 418.400000
13556 7915 15743 1 149.00000 418.400000
13557 7916 15895 1 149.00000 418.400000
13557 7917 15695 1 149.00000 418.400000
13558 7918 15027 1 149.00000 418.400000
13558 7919 14254 1 149.00000 418.400000
13558 7920 15327 1 149.00000 418.400000
13559 7921 14625 1 149.00000 418.400000
13559 7922 14007 1 149.00000 418.400000
13560 7923 14809 1 149.00000 418.400000
13560 7924 15765 1 149.00000 418.400000
13560 7925 13616 1 149.00000 418.400000
13561 7926 15198 1 149.00000 418.400000
13562 7927 16243 1 149.00000 418.400000
13562 7928 14076 1 149.00000 418.400000
13563 7929 16066 1 149.00000 418.400000
13563 7930 15001 1 149.00000 418.400000
13563 7931 13628 1 149.00000 418.400000
15696 7932 22885 1 149.00000 418.400000
22885 7933 24163 1 149.00000 418.400000
13564 7934 15934 1 149.00000 418.400000
13564 7935 15437 1 149.00000 418.400000
13564 7936 14066 1 149.00000 418.400000
13565 7937 15496 1 149.00000 418.400000
13565 7938 13936 1 149.00000 418.400000
13565 7939 14583 1 149.00000 418.400000
13566 7940 16169 1 149.00000 418.400000
13566 7941 14496 1 149.00000 418.400000
13567 7942 15011 1 149.00000 418.400000
13568 7943 13874 1 149.00000 418.400000
13568 7944 15600 1 149.00000 418.400000
14448 7945 16577 1 149.00000 418.400000
13569 7946 14145 1 149.00000 418.400000
13569 7947 15220 1 149.00000 418.400000
13569 7948 13748 1 149.00000 418.400000
13570 7949 15618 1 149.00000 418.400000
13571 7950 14844 1 149.00000 418.400000
13572 7951 16006 1 149.00000 418.400000
13572 7952 14906 1 149.00000 418.400000
12699 7953 13572 1 149.00000 418.400000
13573 7954 16106 1 149.00000 418.400000
13574 7955 16078 1 149.00000 418.400000
13575 7956 18673 1 149.00000 418.400000
13576 7957 16004 1 149.00000 418.400000
13576 7958 14022 1 149.00000 418.400000
13576 7959 15172 1 149.00000 418.400000
13577 7960 14855 1 149.00000 418.400000
13577 7961 16118 1 149.00000 418.400000
13578 7962 16196 1 149.00000 418.400000
13579 7963 15572 1 149.00000 418.400000
13579 7964 15318 1 149.00000 418.400000
13579 7965 15790 1 149.00000 418.400000
13579 7966 15202 1 149.00000 418.400000
13580 7967 15236 1 149.00000 418.400000
13580 7968 13779 1 149.00000 418.400000
13582 7969 14866 1 149.00000 418.400000
13582 7970 14913 1 149.00000 418.400000
13582 7971 14653 1 149.00000 418.400000
16102 7972 16139 1 149.00000 418.400000
14357 7973 16102 1 149.00000 418.400000
13583 7974 16102 1 149.00000 418.400000
13584 7975 15555 1 149.00000 418.400000
13584 7976 14431 1 149.00000 418.400000
13585 7977 14242 1 149.00000 418.400000
13586 7978 20773 1 149.00000 418.400000
13586 7979 15316 1 149.00000 418.400000
13586 7980 24427 1 149.00000 418.400000
13587 7981 16731 1 149.00000 418.400000
13588 7982 15882 1 149.00000 418.400000
13588 7983 15415 1 149.00000 418.400000
13589 7984 16201 1 149.00000 418.400000
13589 7985 14484 1 149.00000 418.400000
13590 7986 14693 1 149.00000 418.400000
13590 7987 15269 1 149.00000 418.400000
13590 7988 16162 1 149.00000 418.400000
13591 7989 14032 1 149.00000 418.400000
13591 7990 20857 1 149.00000 418.400000
13591 7991 19765 1 149.00000 418.400000
13592 7992 15046 1 149.00000 418.400000
13592 7993 14122 1 149.00000 418.400000
13593 7994 15619 1 149.00000 418.400000
13594 7995 14620 1 149.00000 418.400000
13594 7996 14557 1 149.00000 418.400000
13594 7997 15457 1 149.00000 418.400000
13595 7998 15679 1 149.00000 418.400000
13595 7999 13832 1 149.00000 418.400000
13595 8000 14501 1 149.00000 418.400000
13597 8001 14282 1 149.00000 418.400000
13597 8002 14322 1 149.00000 418.400000
13597 8003 15520 1 149.00000 418.400000
13598 8004 14673 1 149.00000 418.400000
13598 8005 14904 1 149.00000 418.400000
13598 8006 15734 1 149.00000 418.400000
13598 8007 13833 1 149.00000 418.400000
13599 8008 15370 1 149.00000 418.400000
13599 8009 14361 1 149.00000 418.400000
13600 8010 13758 1 149.00000 418.400000
13600 8011 20665 1 149.00000 418.400000
15518 8012 18937 1 149.00000 418.400000
15989 8013 18937 1 149.00000 418.400000
13385 8014 13601 1 149.00000 418.400000
13602 8015 15927 1 149.00000 418.400000
13602 8016 14046 1 149.00000 418.400000
13602 8017 16214 1 149.00000 418.400000
13602 8018 14523 1 149.00000 418.400000
13603 8019 15199 1 149.00000 418.400000
13603 8020 16192 1 149.00000 418.400000
13603 8021 14174 1 149.00000 418.400000
12925 8022 13603 1 149.00000 418.400000
13604 8023 15089 1 149.00000 418.400000
13604 8024 14644 1 149.00000 418.400000
13605 8025 16117 1 149.00000 418.400000
13605 8026 15589 1 149.00000 418.400000
13605 8027 15052 1 149.00000 418.400000
13606 8028 15962 1 149.00000 418.400000
13607 8029 13731 1 149.00000 418.400000
13607 8030 16218 1 149.00000 418.400000
13607 8031 13935 1 149.00000 418.400000
13607 8032 15502 1 149.00000 418.400000
13608 8033 14109 1 149.00000 418.400000
13608 8034 14145 1 149.00000 418.400000
13608 8035 14594 1 149.00000 418.400000
13609 8036 14233 1 149.00000 418.400000
13609 8037 14857 1 149.00000 418.400000
13610 8038 15397 1 149.00000 418.400000
13610 8039 15290 1 149.00000 418.400000
13611 8040 15030 1 149.00000 418.400000
13611 8041 13861 1 149.00000 418.400000
13612 8042 13711 1 149.00000 418.400000
16535 8043 18469 1 149.00000 418.400000
18469 8044 20905 1 149.00000 418.400000
17851 8045 19357 1 149.00000 418.400000
13613 8046 16076 1 149.00000 418.400000
13614 8047 15432 1 149.00000 418.400000
13614 8048 15436 1 149.00000 418.400000
13615 8049 14875 1 149.00000 418.400000
13615 8050 15542 1 149.00000 418.400000
13616 8051 14168 1 149.00000 418.400000
13616 8052 13666 1 149.00000 418.400000
13618 8053 15032 1 149.00000 418.400000
13618 8054 21601 1 149.00000 418.400000
13619 8055 14735 1 149.00000 418.400000
13619 8056 14176 1 149.00000 418.400000
11639 8057 13619 1 149.00000 418.400000
20653 8058 21157 1 149.00000 418.400000
15116 8059 21157 1 149.00000 418.400000
13620 8060 15110 1 149.00000 418.400000
13620 8061 14390 1 149.00000 418.400000
13621 8062 14549 1 149.00000 418.400000
13622 8063 15491 1 149.00000 418.400000
13623 8064 15750 1 149.00000 418.400000
13623 8065 15848 1 149.00000 418.400000
13623 8066 14169 1 149.00000 418.400000
20953 8067 24412 1 149.00000 418.400000
13624 8068 13853 1 149.00000 418.400000
13624 8069 15203 1 149.00000 418.400000
13625 8070 14819 1 149.00000 418.400000
13625 8071 14064 1 149.00000 418.400000
13626 8072 15197 1 149.00000 418.400000
13627 8073 16056 1 149.00000 418.400000
13628 8074 14825 1 149.00000 418.400000
13629 8075 14004 1 149.00000 418.400000
13629 8076 14715 1 149.00000 418.400000
13629 8077 15376 1 149.00000 418.400000
13630 8078 13817 1 149.00000 418.400000
13630 8079 14915 1 149.00000 418.400000
13630 8080 14606 1 149.00000 418.400000
20761 8081 23533 1 149.00000 418.400000
13631 8082 15160 1 149.00000 418.400000
13631 8083 14762 1 149.00000 418.400000
13280 8084 21385 1 149.00000 418.400000
13632 8085 14995 1 149.00000 418.400000
13632 8086 14465 1 149.00000 418.400000
13633 8087 14922 1 149.00000 418.400000
13633 8088 14868 1 149.00000 418.400000
14230 8089 22489 1 149.00000 418.400000
12419 8090 22489 1 149.00000 418.400000
19009 8091 23953 1 149.00000 418.400000
14541 8092 23953 1 149.00000 418.400000
17109 8093 23953 1 149.00000 418.400000
13634 8094 13979 1 149.00000 418.400000
13634 8095 22813 1 149.00000 418.400000
13635 8096 15456 1 149.00000 418.400000
13635 8097 24289 1 149.00000 418.400000
13636 8098 15759 1 149.00000 418.400000
15349 8099 15681 1 149.00000 418.400000
13636 8100 13842 1 149.00000 418.400000
13636 8101 15681 1 149.00000 418.400000
13637 8102 14581 1 149.00000 418.400000
13637 8103 15663 1 149.00000 418.400000
13637 8104 13742 1 149.00000 418.400000
14140 8105 23353 1 149.00000 418.400000
13639 8106 14140 1 149.00000 418.400000
13641 8107 15385 1 149.00000 418.400000
13642 8108 14522 1 149.00000 418.400000
13642 8109 15645 1 149.00000 418.400000
13642 8110 16092 1 149.00000 418.400000
13643 8111 19369 1 149.00000 418.400000
13643 8112 15641 1 149.00000 418.400000
13644 8113 15125 1 149.00000 418.400000
13644 8114 13652 1 149.00000 418.400000
12042 8115 15020 1 149.00000 418.400000
13645 8116 16135 1 149.00000 418.400000
13646 8117 14873 1 149.00000 418.400000
13646 8118 15115 1 149.00000 418.400000
13647 8119 15843 1 149.00000 418.400000
13647 8120 15523 1 149.00000 418.400000
13647 8121 15774 1 149.00000 418.400000
13265 8122 13648 1 149.00000 418.400000
13649 8123 15738 1 149.00000 418.400000
13649 8124 15904 1 149.00000 418.400000
13650 8125 13855 1 149.00000 418.400000
13650 8126 15809 1 149.00000 418.400000
13651 8127 16162 1 149.00000 418.400000
13651 8128 15123 1 149.00000 418.400000
13651 8129 14036 1 149.00000 418.400000
13652 8130 15885 1 149.00000 418.400000
13652 8131 14296 1 149.00000 418.400000
13653 8132 14372 1 149.00000 418.400000
13653 8133 16073 1 149.00000 418.400000
13654 8134 14765 1 149.00000 418.400000
13654 8135 14754 1 149.00000 418.400000
13655 8136 13679 1 149.00000 418.400000
13655 8137 14433 1 149.00000 418.400000
13655 8138 15392 1 149.00000 418.400000
13656 8139 15973 1 149.00000 418.400000
13656 8140 15268 1 149.00000 418.400000
13656 8141 15099 1 149.00000 418.400000
13657 8142 15670 1 149.00000 418.400000
13658 8143 14661 1 149.00000 418.400000
13658 8144 14686 1 149.00000 418.400000
13659 8145 15862 1 149.00000 418.400000
13660 8146 14650 1 149.00000 418.400000
13660 8147 15870 1 149.00000 418.400000
14089 8148 15692 1 149.00000 418.400000
13661 8149 15692 1 149.00000 418.400000
13492 8150 15460 1 149.00000 418.400000
13662 8151 13784 1 149.00000 418.400000
13662 8152 15272 1 149.00000 418.400000
14623 8153 23959 1 149.00000 418.400000
13663 8154 14815 1 149.00000 418.400000
13663 8155 14947 1 149.00000 418.400000
14815 8156 15265 1 149.00000 418.400000
13663 8157 14120 1 149.00000 418.400000
13664 8158 14554 1 149.00000 418.400000
13664 8159 16120 1 149.00000 418.400000
13665 8160 16275 1 149.00000 418.400000
11597 8161 14347 1 149.00000 418.400000
11597 8162 13665 1 149.00000 418.400000
13666 8163 13819 1 149.00000 418.400000
13666 8164 15617 1 149.00000 418.400000
13667 8165 15127 1 149.00000 418.400000
11592 8166 15928 1 149.00000 418.400000
13668 8167 15947 1 149.00000 418.400000
13669 8168 14217 1 149.00000 418.400000
13670 8169 14647 1 149.00000 418.400000
13670 8170 15926 1 149.00000 418.400000
13670 8171 13839 1 149.00000 418.400000
13671 8172 14986 1 149.00000 418.400000
13671 8173 18493 1 149.00000 418.400000
13671 8174 15384 1 149.00000 418.400000
13672 8175 13937 1 149.00000 418.400000
13672 8176 14796 1 149.00000 418.400000
13672 8177 14713 1 149.00000 418.400000
13672 8178 14638 1 149.00000 418.400000
13673 8179 15413 1 149.00000 418.400000
13673 8180 14651 1 149.00000 418.400000
13673 8181 14412 1 149.00000 418.400000
13673 8182 15009 1 149.00000 418.400000
13674 8183 15634 1 149.00000 418.400000
13674 8184 14430 1 149.00000 418.400000
13675 8185 15553 1 149.00000 418.400000
13676 8186 13733 1 149.00000 418.400000
13676 8187 16001 1 149.00000 418.400000
13676 8188 15261 1 149.00000 418.400000
13677 8189 14821 1 149.00000 418.400000
13677 8190 14645 1 149.00000 418.400000
13677 8191 14773 1 149.00000 418.400000
13678 8192 14210 1 149.00000 418.400000
13678 8193 13790 1 149.00000 418.400000
13678 8194 14711 1 149.00000 418.400000
13679 8195 14671 1 149.00000 418.400000
13679 8196 14055 1 149.00000 418.400000
13680 8197 15126 1 149.00000 418.400000
18829 8198 24417 1 149.00000 418.400000
13681 8199 13703 1 149.00000 418.400000
13681 8200 14834 1 149.00000 418.400000
13681 8201 15914 1 149.00000 418.400000
13682 8202 15050 1 149.00000 418.400000
13683 8203 14263 1 149.00000 418.400000
13683 8204 14211 1 149.00000 418.400000
13684 8205 15963 1 149.00000 418.400000
13684 8206 16173 1 149.00000 418.400000
13684 8207 15363 1 149.00000 418.400000
13685 8208 15749 1 149.00000 418.400000
13685 8209 15678 1 149.00000 418.400000
13686 8210 20809 1 149.00000 418.400000
12226 8211 13896 1 149.00000 418.400000
18625 8212 23791 1 149.00000 418.400000
13688 8213 21601 1 149.00000 418.400000
13689 8214 15283 1 149.00000 418.400000
13689 8215 14407 1 149.00000 418.400000
14218 8216 16185 1 149.00000 418.400000
13690 8217 14218 1 149.00000 418.400000
13691 8218 16048 1 149.00000 418.400000
13691 8219 14487 1 149.00000 418.400000
13692 8220 15357 1 149.00000 418.400000
15522 8221 23962 1 149.00000 418.400000
15379 8222 23317 1 149.00000 418.400000
13693 8223 15372 1 149.00000 418.400000
13693 8224 14924 1 149.00000 418.400000
13693 8225 16256 1 149.00000 418.400000
13694 8226 15861 1 149.00000 418.400000
13694 8227 13914 1 149.00000 418.400000
13694 8228 15891 1 149.00000 418.400000
13696 8229 15084 1 149.00000 418.400000
13696 8230 16215 1 149.00000 418.400000
13696 8231 13878 1 149.00000 418.400000
13696 8232 14374 1 149.00000 418.400000
13697 8233 15643 1 149.00000 418.400000
13697 8234 24199 1 149.00000 418.400000
13698 8235 14491 1 149.00000 418.400000
13698 8236 15833 1 149.00000 418.400000
18721 8237 18997 1 149.00000 418.400000
13699 8238 16167 1 149.00000 418.400000
13699 8239 15277 1 149.00000 418.400000
14443 8240 16060 1 149.00000 418.400000
13700 8241 14710 1 149.00000 418.400000
13700 8242 16060 1 149.00000 418.400000
13701 8243 14641 1 149.00000 418.400000
13701 8244 13854 1 149.00000 418.400000
13701 8245 15230 1 149.00000 418.400000
14638 8246 23965 1 149.00000 418.400000
13702 8247 15167 1 149.00000 418.400000
13703 8248 14035 1 149.00000 418.400000
13704 8249 15120 1 149.00000 418.400000
13704 8250 15792 1 149.00000 418.400000
13704 8251 14706 1 149.00000 418.400000
13704 8252 14060 1 149.00000 418.400000
13705 8253 15544 1 149.00000 418.400000
13705 8254 14163 1 149.00000 418.400000
13705 8255 16248 1 149.00000 418.400000
13706 8256 15244 1 149.00000 418.400000
13706 8257 13812 1 149.00000 418.400000
13706 8258 14131 1 149.00000 418.400000
15337 8259 17151 1 149.00000 418.400000
13707 8260 15141 1 149.00000 418.400000
13707 8261 14923 1 149.00000 418.400000
15647 8262 21145 1 149.00000 418.400000
13708 8263 14151 1 149.00000 418.400000
13708 8264 15299 1 149.00000 418.400000
15045 8265 23473 1 149.00000 418.400000
13709 8266 15688 1 149.00000 418.400000
13709 8267 15787 1 149.00000 418.400000
13709 8268 16267 1 149.00000 418.400000
13710 8269 14737 1 149.00000 418.400000
13710 8270 15809 1 149.00000 418.400000
13710 8271 14052 1 149.00000 418.400000
13711 8272 15501 1 149.00000 418.400000
13712 8273 16278 1 149.00000 418.400000
13713 8274 15752 1 149.00000 418.400000
13714 8275 22261 1 149.00000 418.400000
15687 8276 17879 1 149.00000 418.400000
13022 8277 14258 1 149.00000 418.400000
13715 8278 15008 1 149.00000 418.400000
13022 8279 14714 1 149.00000 418.400000
13716 8280 15956 1 149.00000 418.400000
13717 8281 15855 1 149.00000 418.400000
13717 8282 14054 1 149.00000 418.400000
14054 8283 14484 1 149.00000 418.400000
13718 8284 15474 1 149.00000 418.400000
13718 8285 14010 1 149.00000 418.400000
13718 8286 14731 1 149.00000 418.400000
13718 8287 13917 1 149.00000 418.400000
14805 8288 24422 1 149.00000 418.400000
20185 8289 24422 1 149.00000 418.400000
13719 8290 16563 1 149.00000 418.400000
13719 8291 16212 1 149.00000 418.400000
13720 8292 15180 1 149.00000 418.400000
13720 8293 14154 1 149.00000 418.400000
19537 8294 23857 1 149.00000 418.400000
13721 8295 15822 1 149.00000 418.400000
13721 8296 17417 1 149.00000 418.400000
13722 8297 14324 1 149.00000 418.400000
19609 8298 24235 1 149.00000 418.400000
13723 8299 14697 1 149.00000 418.400000
13723 8300 14347 1 149.00000 418.400000
13723 8301 15167 1 149.00000 418.400000
13724 8302 14589 1 149.00000 418.400000
13724 8303 15899 1 149.00000 418.400000
13724 8304 24244 1 149.00000 418.400000
13725 8305 15347 1 149.00000 418.400000
13725 8306 14370 1 149.00000 418.400000
13726 8307 13967 1 149.00000 418.400000
13726 8308 15962 1 149.00000 418.400000
13727 8309 15018 1 149.00000 418.400000
13727 8310 16121 1 149.00000 418.400000
13727 8311 15979 1 149.00000 418.400000
13728 8312 16251 1 149.00000 418.400000
13728 8313 15090 1 149.00000 418.400000
12778 8314 15977 1 149.00000 418.400000
14574 8315 15090 1 149.00000 418.400000
13729 8316 15472 1 149.00000 418.400000
13729 8317 14933 1 149.00000 418.400000
13729 8318 13843 1 149.00000 418.400000
13729 8319 16146 1 149.00000 418.400000
13730 8320 14205 1 149.00000 418.400000
13731 8321 15826 1 149.00000 418.400000
13731 8322 14104 1 149.00000 418.400000
13732 8323 14371 1 149.00000 418.400000
13732 8324 14339 1 149.00000 418.400000
13733 8325 14812 1 149.00000 418.400000
13733 8326 15993 1 149.00000 418.400000
13734 8327 14512 1 149.00000 418.400000
13734 8328 15486 1 149.00000 418.400000
13734 8329 15129 1 149.00000 418.400000
11966 8330 13734 1 149.00000 418.400000
17501 8331 20689 1 149.00000 418.400000
16126 8332 20689 1 149.00000 418.400000
13735 8333 15873 1 149.00000 418.400000
13735 8334 14012 1 149.00000 418.400000
13735 8335 15921 1 149.00000 418.400000
13736 8336 16248 1 149.00000 418.400000
13736 8337 15267 1 149.00000 418.400000
13736 8338 13835 1 149.00000 418.400000
13736 8339 14714 1 149.00000 418.400000
13737 8340 14307 1 149.00000 418.400000
13737 8341 15171 1 149.00000 418.400000
13738 8342 14613 1 149.00000 418.400000
13739 8343 13828 1 149.00000 418.400000
13739 8344 15491 1 149.00000 418.400000
13739 8345 15520 1 149.00000 418.400000
13740 8346 15926 1 149.00000 418.400000
13740 8347 16149 1 149.00000 418.400000
13741 8348 15123 1 149.00000 418.400000
13741 8349 14853 1 149.00000 418.400000
13741 8350 15134 1 149.00000 418.400000
13743 8351 14895 1 149.00000 418.400000
13743 8352 15924 1 149.00000 418.400000
13743 8353 13821 1 149.00000 418.400000
13744 8354 15143 1 149.00000 418.400000
13745 8355 14729 1 149.00000 418.400000
13745 8356 14278 1 149.00000 418.400000
13746 8357 14264 1 149.00000 418.400000
13746 8358 15910 1 149.00000 418.400000
13747 8359 14846 1 149.00000 418.400000
13747 8360 14076 1 149.00000 418.400000
13747 8361 21541 1 149.00000 418.400000
13748 8362 14579 1 149.00000 418.400000
13749 8363 24136 1 149.00000 418.400000
13749 8364 15291 1 149.00000 418.400000
13749 8365 16025 1 149.00000 418.400000
13750 8366 14121 1 149.00000 418.400000
13750 8367 13776 1 149.00000 418.400000
20233 8368 24007 1 149.00000 418.400000
13781 8369 20233 1 149.00000 418.400000
14150 8370 20233 1 149.00000 418.400000
20029 8371 22777 1 149.00000 418.400000
13751 8372 24064 1 149.00000 418.400000
15944 8373 18721 1 149.00000 418.400000
13752 8374 15850 1 149.00000 418.400000
13752 8375 19789 1 149.00000 418.400000
15698 8376 23653 1 149.00000 418.400000
13753 8377 14235 1 149.00000 418.400000
13754 8378 15724 1 149.00000 418.400000
13755 8379 15497 1 149.00000 418.400000
13755 8380 16022 1 149.00000 418.400000
14078 8381 19417 1 149.00000 418.400000
13756 8382 16234 1 149.00000 418.400000
11555 8383 13756 1 149.00000 418.400000
13757 8384 14622 1 149.00000 418.400000
13758 8385 14042 1 149.00000 418.400000
13759 8386 13875 1 149.00000 418.400000
13759 8387 15680 1 149.00000 418.400000
13759 8388 14925 1 149.00000 418.400000
13760 8389 14201 1 149.00000 418.400000
13761 8390 14836 1 149.00000 418.400000
13761 8391 24130 1 149.00000 418.400000
13762 8392 14290 1 149.00000 418.400000
13762 8393 15232 1 149.00000 418.400000
13763 8394 16222 1 149.00000 418.400000
13763 8395 14136 1 149.00000 418.400000
13763 8396 14690 1 149.00000 418.400000
13764 8397 14093 1 149.00000 418.400000
13764 8398 16057 1 149.00000 418.400000
13765 8399 15529 1 149.00000 418.400000
13765 8400 14886 1 149.00000 418.400000
13766 8401 16096 1 149.00000 418.400000
13766 8402 15731 1 149.00000 418.400000
13768 8403 15766 1 149.00000 418.400000
14423 8404 23968 1 149.00000 418.400000
17725 8405 23968 1 149.00000 418.400000
13769 8406 16233 1 149.00000 418.400000
13769 8407 23989 1 149.00000 418.400000
13770 8408 15061 1 149.00000 418.400000
13770 8409 14878 1 149.00000 418.400000
13770 8410 14303 1 149.00000 418.400000
13771 8411 15556 1 149.00000 418.400000
19405 8412 23623 1 149.00000 418.400000
13772 8413 23293 1 149.00000 418.400000
13772 8414 13836 1 149.00000 418.400000
13773 8415 14781 1 149.00000 418.400000
13773 8416 15358 1 149.00000 418.400000
13773 8417 15586 1 149.00000 418.400000
13774 8418 15014 1 149.00000 418.400000
13774 8419 13925 1 149.00000 418.400000
13774 8420 15925 1 149.00000 418.400000
12602 8421 15075 1 149.00000 418.400000
13775 8422 14389 1 149.00000 418.400000
13776 8423 15438 1 149.00000 418.400000
13776 8424 14100 1 149.00000 418.400000
13776 8425 15070 1 149.00000 418.400000
14511 8426 16023 1 149.00000 418.400000
13777 8427 16023 1 149.00000 418.400000
14309 8428 16023 1 149.00000 418.400000
15983 8429 24247 1 149.00000 418.400000
13778 8430 14494 1 149.00000 418.400000
13778 8431 15983 1 149.00000 418.400000
13779 8432 15980 1 149.00000 418.400000
13779 8433 14905 1 149.00000 418.400000
13780 8434 15928 1 149.00000 418.400000
13780 8435 14937 1 149.00000 418.400000
15076 8436 15928 1 149.00000 418.400000
14681 8437 15312 1 149.00000 418.400000
13781 8438 24073 1 149.00000 418.400000
13781 8439 15312 1 149.00000 418.400000
13782 8440 15460 1 149.00000 418.400000
13782 8441 14266 1 149.00000 418.400000
13783 8442 15026 1 149.00000 418.400000
13784 8443 14528 1 149.00000 418.400000
13785 8444 24259 1 149.00000 418.400000
13786 8445 13817 1 149.00000 418.400000
13786 8446 15824 1 149.00000 418.400000
13786 8447 14601 1 149.00000 418.400000
13787 8448 14899 1 149.00000 418.400000
13787 8449 15471 1 149.00000 418.400000
15471 8450 15587 1 149.00000 418.400000
13788 8451 15827 1 149.00000 418.400000
13788 8452 14234 1 149.00000 418.400000
13788 8453 15048 1 149.00000 418.400000
15827 8454 15878 1 149.00000 418.400000
13789 8455 14738 1 149.00000 418.400000
11471 8456 15217 1 149.00000 418.400000
13791 8457 15386 1 149.00000 418.400000
13791 8458 14901 1 149.00000 418.400000
17263 8459 18517 1 149.00000 418.400000
13792 8460 16031 1 149.00000 418.400000
14142 8461 16031 1 149.00000 418.400000
13793 8462 14984 1 149.00000 418.400000
13793 8463 14412 1 149.00000 418.400000
13793 8464 14929 1 149.00000 418.400000
13794 8465 14435 1 149.00000 418.400000
13794 8466 15257 1 149.00000 418.400000
13795 8467 16197 1 149.00000 418.400000
13796 8468 14905 1 149.00000 418.400000
13410 8469 13796 1 149.00000 418.400000
13796 8470 15802 1 149.00000 418.400000
13796 8471 15136 1 149.00000 418.400000
13797 8472 15725 1 149.00000 418.400000
15937 8473 23425 1 149.00000 418.400000
14912 8474 23425 1 149.00000 418.400000
13799 8475 14726 1 149.00000 418.400000
13800 8476 13886 1 149.00000 418.400000
13800 8477 15620 1 149.00000 418.400000
13801 8478 14766 1 149.00000 418.400000
13801 8479 16228 1 149.00000 418.400000
13801 8480 16210 1 149.00000 418.400000
13802 8481 14274 1 149.00000 418.400000
13802 8482 15108 1 149.00000 418.400000
13803 8483 19657 1 149.00000 418.400000
13804 8484 13884 1 149.00000 418.400000
13804 8485 14621 1 149.00000 418.400000
13805 8486 15805 1 149.00000 418.400000
13805 8487 14601 1 149.00000 418.400000
13805 8488 16078 1 149.00000 418.400000
13806 8489 14644 1 149.00000 418.400000
13806 8490 15753 1 149.00000 418.400000
13806 8491 14537 1 149.00000 418.400000
15631 8492 23971 1 149.00000 418.400000
13807 8493 21517 1 149.00000 418.400000
13807 8494 14678 1 149.00000 418.400000
13808 8495 15809 1 149.00000 418.400000
13808 8496 14522 1 149.00000 418.400000
14956 8497 24467 1 149.00000 418.400000
13809 8498 24172 1 149.00000 418.400000
14141 8499 14956 1 149.00000 418.400000
13809 8500 14956 1 149.00000 418.400000
14162 8501 24427 1 149.00000 418.400000
13810 8502 14447 1 149.00000 418.400000
13810 8503 14144 1 149.00000 418.400000
13810 8504 13903 1 149.00000 418.400000
12015 8505 15177 1 149.00000 418.400000
12015 8506 13825 1 149.00000 418.400000
13812 8507 14972 1 149.00000 418.400000
13813 8508 15207 1 149.00000 418.400000
13813 8509 15666 1 149.00000 418.400000
13813 8510 15139 1 149.00000 418.400000
16815 8511 22333 1 149.00000 418.400000
15335 8512 22333 1 149.00000 418.400000
13814 8513 14876 1 149.00000 418.400000
13815 8514 15392 1 149.00000 418.400000
13815 8515 14612 1 149.00000 418.400000
13815 8516 16146 1 149.00000 418.400000
13816 8517 16059 1 149.00000 418.400000
16264 8518 23974 1 149.00000 418.400000
13817 8519 14925 1 149.00000 418.400000
19573 8520 24277 1 149.00000 418.400000
13818 8521 14399 1 149.00000 418.400000
13818 8522 15728 1 149.00000 418.400000
13819 8523 14622 1 149.00000 418.400000
13819 8524 16258 1 149.00000 418.400000
11305 8525 14182 1 149.00000 418.400000
11305 8526 14454 1 149.00000 418.400000
11305 8527 14050 1 149.00000 418.400000
13821 8528 13886 1 149.00000 418.400000
13821 8529 14468 1 149.00000 418.400000
13822 8530 14081 1 149.00000 418.400000
13822 8531 15540 1 149.00000 418.400000
13823 8532 15990 1 149.00000 418.400000
13823 8533 15150 1 149.00000 418.400000
13823 8534 16074 1 149.00000 418.400000
13824 8535 15660 1 149.00000 418.400000
13824 8536 15031 1 149.00000 418.400000
13824 8537 15955 1 149.00000 418.400000
13825 8538 15886 1 149.00000 418.400000
13825 8539 14149 1 149.00000 418.400000
13826 8540 15837 1 149.00000 418.400000
13826 8541 15287 1 149.00000 418.400000
13826 8542 16155 1 149.00000 418.400000
13827 8543 14583 1 149.00000 418.400000
13827 8544 15673 1 149.00000 418.400000
13827 8545 13936 1 149.00000 418.400000
13828 8546 15038 1 149.00000 418.400000
13829 8547 14868 1 149.00000 418.400000
13829 8548 15277 1 149.00000 418.400000
13829 8549 14051 1 149.00000 418.400000
15612 8550 19453 1 149.00000 418.400000
13830 8551 14571 1 149.00000 418.400000
13830 8552 14893 1 149.00000 418.400000
13830 8553 14465 1 149.00000 418.400000
13832 8554 16182 1 149.00000 418.400000
13832 8555 13862 1 149.00000 418.400000
13833 8556 16053 1 149.00000 418.400000
13833 8557 16142 1 149.00000 418.400000
13834 8558 14729 1 149.00000 418.400000
13834 8559 16037 1 149.00000 418.400000
13835 8560 15669 1 149.00000 418.400000
13835 8561 15780 1 149.00000 418.400000
15255 8562 24432 1 149.00000 418.400000
13836 8563 16055 1 149.00000 418.400000
13837 8564 16057 1 149.00000 418.400000
13837 8565 15063 1 149.00000 418.400000
13838 8566 15785 1 149.00000 418.400000
13839 8567 14923 1 149.00000 418.400000
13840 8568 14382 1 149.00000 418.400000
13840 8569 24232 1 149.00000 418.400000
13841 8570 14981 1 149.00000 418.400000
13841 8571 16243 1 149.00000 418.400000
13841 8572 15492 1 149.00000 418.400000
14214 8573 20581 1 149.00000 418.400000
15735 8574 20581 1 149.00000 418.400000
13843 8575 15002 1 149.00000 418.400000
13844 8576 16050 1 149.00000 418.400000
13844 8577 15534 1 149.00000 418.400000
13844 8578 16083 1 149.00000 418.400000
13844 8579 13919 1 149.00000 418.400000
13845 8580 15436 1 149.00000 418.400000
11663 8581 13845 1 149.00000 418.400000
13846 8582 15011 1 149.00000 418.400000
13847 8583 15735 1 149.00000 418.400000
13847 8584 15278 1 149.00000 418.400000
11498 8585 13847 1 149.00000 418.400000
13848 8586 14787 1 149.00000 418.400000
13848 8587 14984 1 149.00000 418.400000
13849 8588 24250 1 149.00000 418.400000
13849 8589 15263 1 149.00000 418.400000
13850 8590 15350 1 149.00000 418.400000
13850 8591 14851 1 149.00000 418.400000
13850 8592 15191 1 149.00000 418.400000
12668 8593 14380 1 149.00000 418.400000
13851 8594 13888 1 149.00000 418.400000
13851 8595 16076 1 149.00000 418.400000
13852 8596 15401 1 149.00000 418.400000
13852 8597 15476 1 149.00000 418.400000
13852 8598 15793 1 149.00000 418.400000
13853 8599 14796 1 149.00000 418.400000
13853 8600 15253 1 149.00000 418.400000
13853 8601 21769 1 149.00000 418.400000
13854 8602 14519 1 149.00000 418.400000
13854 8603 16019 1 149.00000 418.400000
13856 8604 14870 1 149.00000 418.400000
13857 8605 16063 1 149.00000 418.400000
13857 8606 15863 1 149.00000 418.400000
13857 8607 16153 1 149.00000 418.400000
13857 8608 15565 1 149.00000 418.400000
13700 8609 13858 1 149.00000 418.400000
13859 8610 15856 1 149.00000 418.400000
13859 8611 15596 1 149.00000 418.400000
11702 8612 15888 1 149.00000 418.400000
13860 8613 15849 1 149.00000 418.400000
13860 8614 15596 1 149.00000 418.400000
13861 8615 14858 1 149.00000 418.400000
13861 8616 14321 1 149.00000 418.400000
17291 8617 24124 1 149.00000 418.400000
14481 8618 17291 1 149.00000 418.400000
13862 8619 24268 1 149.00000 418.400000
13862 8620 14775 1 149.00000 418.400000
17865 8621 24169 1 149.00000 418.400000
11404 8622 14631 1 149.00000 418.400000
13863 8623 14246 1 149.00000 418.400000
13863 8624 15319 1 149.00000 418.400000
13864 8625 15628 1 149.00000 418.400000
13865 8626 14809 1 149.00000 418.400000
13865 8627 16214 1 149.00000 418.400000
13865 8628 13886 1 149.00000 418.400000
13865 8629 14895 1 149.00000 418.400000
13866 8630 15575 1 149.00000 418.400000
13867 8631 14005 1 149.00000 418.400000
13867 8632 14329 1 149.00000 418.400000
13867 8633 15362 1 149.00000 418.400000
16829 8634 18505 1 149.00000 418.400000
18505 8635 24001 1 149.00000 418.400000
15282 8636 18505 1 149.00000 418.400000
14642 8637 14715 1 149.00000 418.400000
14461 8638 14715 1 149.00000 418.400000
13868 8639 14715 1 149.00000 418.400000
13869 8640 15714 1 149.00000 418.400000
13870 8641 15200 1 149.00000 418.400000
13870 8642 13969 1 149.00000 418.400000
13871 8643 15009 1 149.00000 418.400000
13871 8644 15229 1 149.00000 418.400000
13872 8645 14747 1 149.00000 418.400000
13872 8646 14757 1 149.00000 418.400000
15820 8647 22417 1 149.00000 418.400000
15847 8648 22417 1 149.00000 418.400000
13873 8649 14856 1 149.00000 418.400000
13873 8650 15433 1 149.00000 418.400000
13874 8651 15352 1 149.00000 418.400000
13875 8652 14276 1 149.00000 418.400000
13876 8653 15608 1 149.00000 418.400000
13876 8654 14887 1 149.00000 418.400000
13877 8655 14840 1 149.00000 418.400000
13877 8656 15835 1 149.00000 418.400000
21685 8657 23977 1 149.00000 418.400000
23977 8658 24028 1 149.00000 418.400000
13878 8659 14966 1 149.00000 418.400000
13879 8660 14275 1 149.00000 418.400000
13879 8661 15513 1 149.00000 418.400000
13880 8662 14781 1 149.00000 418.400000
13880 8663 16030 1 149.00000 418.400000
12801 8664 13880 1 149.00000 418.400000
13880 8665 14359 1 149.00000 418.400000
13968 8666 16008 1 149.00000 418.400000
13968 8667 14772 1 149.00000 418.400000
13881 8668 15097 1 149.00000 418.400000
13882 8669 15043 1 149.00000 418.400000
13883 8670 16113 1 149.00000 418.400000
13883 8671 16010 1 149.00000 418.400000
16213 8672 19993 1 149.00000 418.400000
13885 8673 14725 1 149.00000 418.400000
13885 8674 13950 1 149.00000 418.400000
11298 8675 13887 1 149.00000 418.400000
13887 8676 15988 1 149.00000 418.400000
13887 8677 15176 1 149.00000 418.400000
13888 8678 14509 1 149.00000 418.400000
14917 8679 15494 1 149.00000 418.400000
13889 8680 15494 1 149.00000 418.400000
13890 8681 14872 1 149.00000 418.400000
13890 8682 14969 1 149.00000 418.400000
13890 8683 15570 1 149.00000 418.400000
13890 8684 14381 1 149.00000 418.400000
13891 8685 14777 1 149.00000 418.400000
13892 8686 14491 1 149.00000 418.400000
13892 8687 16021 1 149.00000 418.400000
13893 8688 16238 1 149.00000 418.400000
13893 8689 15416 1 149.00000 418.400000
13894 8690 15680 1 149.00000 418.400000
13895 8691 15863 1 149.00000 418.400000
13895 8692 14400 1 149.00000 418.400000
13895 8693 16063 1 149.00000 418.400000
13895 8694 15259 1 149.00000 418.400000
13896 8695 14219 1 149.00000 418.400000
13897 8696 14602 1 149.00000 418.400000
13898 8697 16145 1 149.00000 418.400000
13899 8698 15689 1 149.00000 418.400000
13899 8699 14115 1 149.00000 418.400000
13900 8700 15575 1 149.00000 418.400000
13900 8701 14214 1 149.00000 418.400000
13901 8702 14507 1 149.00000 418.400000
13901 8703 14415 1 149.00000 418.400000
13902 8704 15225 1 149.00000 418.400000
13902 8705 15189 1 149.00000 418.400000
13903 8706 15534 1 149.00000 418.400000
13905 8707 15368 1 149.00000 418.400000
13905 8708 15403 1 149.00000 418.400000
13905 8709 19141 1 149.00000 418.400000
13906 8710 15306 1 149.00000 418.400000
13906 8711 13926 1 149.00000 418.400000
13907 8712 15834 1 149.00000 418.400000
13908 8713 15461 1 149.00000 418.400000
13908 8714 14934 1 149.00000 418.400000
13909 8715 16218 1 149.00000 418.400000
13910 8716 15551 1 149.00000 418.400000
13910 8717 14828 1 149.00000 418.400000
13910 8718 15307 1 149.00000 418.400000
13911 8719 14891 1 149.00000 418.400000
13911 8720 15982 1 149.00000 418.400000
13912 8721 14139 1 149.00000 418.400000
13912 8722 14950 1 149.00000 418.400000
13913 8723 15482 1 149.00000 418.400000
13913 8724 14739 1 149.00000 418.400000
13913 8725 24447 1 149.00000 418.400000
13914 8726 14339 1 149.00000 418.400000
13914 8727 14843 1 149.00000 418.400000
13915 8728 15371 1 149.00000 418.400000
11342 8729 13915 1 149.00000 418.400000
13915 8730 15267 1 149.00000 418.400000
13916 8731 15896 1 149.00000 418.400000
13916 8732 15796 1 149.00000 418.400000
13917 8733 14586 1 149.00000 418.400000
13918 8734 15998 1 149.00000 418.400000
13135 8735 16136 1 149.00000 418.400000
13919 8736 15457 1 149.00000 418.400000
13920 8737 14113 1 149.00000 418.400000
13921 8738 16080 1 149.00000 418.400000
13921 8739 16148 1 149.00000 418.400000
13921 8740 15639 1 149.00000 418.400000
13922 8741 14860 1 149.00000 418.400000
13923 8742 15317 1 149.00000 418.400000
13923 8743 15105 1 149.00000 418.400000
13924 8744 14358 1 149.00000 418.400000
13924 8745 15798 1 149.00000 418.400000
13925 8746 15381 1 149.00000 418.400000
13927 8747 13941 1 149.00000 418.400000
13927 8748 14791 1 149.00000 418.400000
13927 8749 15160 1 149.00000 418.400000
13928 8750 15395 1 149.00000 418.400000
13929 8751 14791 1 149.00000 418.400000
13930 8752 13933 1 149.00000 418.400000
13930 8753 14123 1 149.00000 418.400000
13931 8754 14988 1 149.00000 418.400000
13931 8755 14013 1 149.00000 418.400000
13931 8756 15782 1 149.00000 418.400000
13933 8757 15559 1 149.00000 418.400000
13934 8758 15043 1 149.00000 418.400000
13934 8759 14742 1 149.00000 418.400000
23980 8760 24265 1 149.00000 418.400000
15486 8761 23980 1 149.00000 418.400000
13935 8762 15301 1 149.00000 418.400000
13936 8763 14849 1 149.00000 418.400000
13937 8764 13942 1 149.00000 418.400000
13937 8765 14148 1 149.00000 418.400000
13938 8766 14350 1 149.00000 418.400000
13938 8767 15594 1 149.00000 418.400000
13939 8768 14422 1 149.00000 418.400000
13939 8769 15517 1 149.00000 418.400000
13940 8770 15018 1 149.00000 418.400000
13940 8771 15215 1 149.00000 418.400000
13942 8772 15997 1 149.00000 418.400000
13943 8773 15810 1 149.00000 418.400000
13943 8774 14325 1 149.00000 418.400000
13944 8775 15124 1 149.00000 418.400000
13944 8776 14855 1 149.00000 418.400000
14162 8777 23161 1 149.00000 418.400000
13945 8778 14983 1 149.00000 418.400000
13945 8779 14215 1 149.00000 418.400000
13946 8780 15523 1 149.00000 418.400000
13946 8781 15267 1 149.00000 418.400000
13946 8782 14684 1 149.00000 418.400000
13947 8783 16190 1 149.00000 418.400000
13947 8784 14352 1 149.00000 418.400000
13948 8785 24462 1 149.00000 418.400000
13949 8786 14874 1 149.00000 418.400000
13949 8787 15377 1 149.00000 418.400000
13950 8788 14657 1 149.00000 418.400000
13950 8789 15275 1 149.00000 418.400000
13951 8790 14551 1 149.00000 418.400000
13951 8791 15005 1 149.00000 418.400000
13951 8792 14396 1 149.00000 418.400000
14584 8793 23461 1 149.00000 418.400000
23461 8794 24178 1 149.00000 418.400000
13952 8795 14543 1 149.00000 418.400000
13953 8796 14198 1 149.00000 418.400000
13953 8797 14268 1 149.00000 418.400000
13954 8798 14616 1 149.00000 418.400000
13954 8799 21037 1 149.00000 418.400000
13955 8800 15339 1 149.00000 418.400000
13464 8801 13955 1 149.00000 418.400000
13955 8802 14680 1 149.00000 418.400000
13956 8803 15762 1 149.00000 418.400000
13956 8804 13959 1 149.00000 418.400000
13957 8805 14514 1 149.00000 418.400000
13957 8806 14075 1 149.00000 418.400000
13957 8807 15661 1 149.00000 418.400000
13958 8808 14960 1 149.00000 418.400000
13959 8809 15899 1 149.00000 418.400000
13959 8810 14312 1 149.00000 418.400000
13959 8811 15330 1 149.00000 418.400000
13960 8812 15891 1 149.00000 418.400000
14691 8813 22777 1 149.00000 418.400000
13961 8814 14699 1 149.00000 418.400000
19129 8815 23800 1 149.00000 418.400000
13962 8816 14559 1 149.00000 418.400000
13963 8817 15903 1 149.00000 418.400000
13964 8818 15651 1 149.00000 418.400000
13964 8819 16058 1 149.00000 418.400000
13965 8820 15933 1 149.00000 418.400000
15636 8821 23983 1 149.00000 418.400000
17949 8822 23281 1 149.00000 418.400000
13966 8823 14366 1 149.00000 418.400000
13966 8824 15721 1 149.00000 418.400000
13967 8825 14961 1 149.00000 418.400000
15466 8826 16008 1 149.00000 418.400000
13971 8827 14058 1 149.00000 418.400000
13971 8828 21877 1 149.00000 418.400000
13971 8829 23425 1 149.00000 418.400000
13972 8830 15491 1 149.00000 418.400000
13973 8831 15625 1 149.00000 418.400000
13973 8832 15352 1 149.00000 418.400000
13973 8833 14736 1 149.00000 418.400000
13973 8834 14449 1 149.00000 418.400000
13974 8835 14205 1 149.00000 418.400000
13975 8836 15209 1 149.00000 418.400000
13976 8837 14640 1 149.00000 418.400000
13977 8838 14752 1 149.00000 418.400000
13977 8839 15070 1 149.00000 418.400000
13977 8840 15596 1 149.00000 418.400000
13978 8841 17599 1 149.00000 418.400000
13978 8842 14325 1 149.00000 418.400000
13979 8843 15786 1 149.00000 418.400000
13979 8844 14958 1 149.00000 418.400000
13980 8845 15967 1 149.00000 418.400000
13980 8846 15949 1 149.00000 418.400000
13981 8847 15075 1 149.00000 418.400000
12895 8848 14553 1 149.00000 418.400000
13982 8849 15041 1 149.00000 418.400000
13983 8850 16198 1 149.00000 418.400000
17851 8851 24196 1 149.00000 418.400000
13984 8852 14649 1 149.00000 418.400000
13984 8853 14874 1 149.00000 418.400000
13984 8854 15955 1 149.00000 418.400000
12726 8855 16163 1 149.00000 418.400000
13985 8856 14407 1 149.00000 418.400000
13985 8857 14222 1 149.00000 418.400000
13986 8858 15528 1 149.00000 418.400000
13986 8859 15146 1 149.00000 418.400000
13986 8860 15960 1 149.00000 418.400000
13987 8861 15857 1 149.00000 418.400000
13987 8862 14391 1 149.00000 418.400000
13987 8863 14860 1 149.00000 418.400000
13988 8864 15923 1 149.00000 418.400000
13988 8865 21697 1 149.00000 418.400000
14622 8866 17823 1 149.00000 418.400000
16017 8867 17823 1 149.00000 418.400000
13989 8868 14221 1 149.00000 418.400000
15530 8869 17529 1 149.00000 418.400000
13990 8870 15913 1 149.00000 418.400000
13990 8871 14131 1 149.00000 418.400000
13992 8872 14855 1 149.00000 418.400000
13993 8873 14661 1 149.00000 418.400000
13993 8874 24166 1 149.00000 418.400000
13993 8875 21229 1 149.00000 418.400000
14623 8876 20221 1 149.00000 418.400000
14835 8877 23017 1 149.00000 418.400000
14373 8878 22213 1 149.00000 418.400000
22213 8879 22225 1 149.00000 418.400000
13994 8880 14895 1 149.00000 418.400000
13995 8881 14826 1 149.00000 418.400000
13995 8882 15864 1 149.00000 418.400000
13996 8883 15081 1 149.00000 418.400000
13997 8884 15446 1 149.00000 418.400000
13997 8885 15314 1 149.00000 418.400000
13998 8886 14299 1 149.00000 418.400000
13998 8887 15504 1 149.00000 418.400000
14000 8888 15732 1 149.00000 418.400000
14000 8889 15715 1 149.00000 418.400000
14000 8890 14213 1 149.00000 418.400000
14001 8891 14226 1 149.00000 418.400000
14001 8892 15209 1 149.00000 418.400000
13172 8893 14002 1 149.00000 418.400000
11979 8894 15695 1 149.00000 418.400000
14003 8895 16015 1 149.00000 418.400000
14004 8896 14591 1 149.00000 418.400000
14004 8897 14602 1 149.00000 418.400000
14004 8898 14822 1 149.00000 418.400000
14005 8899 14369 1 149.00000 418.400000
14006 8900 16014 1 149.00000 418.400000
14006 8901 15485 1 149.00000 418.400000
14007 8902 15728 1 149.00000 418.400000
14007 8903 15830 1 149.00000 418.400000
14008 8904 16079 1 149.00000 418.400000
14008 8905 16222 1 149.00000 418.400000
14008 8906 14830 1 149.00000 418.400000
14009 8907 15693 1 149.00000 418.400000
14755 8908 18997 1 149.00000 418.400000
14011 8909 14667 1 149.00000 418.400000
14011 8910 14407 1 149.00000 418.400000
14012 8911 15536 1 149.00000 418.400000
14012 8912 14503 1 149.00000 418.400000
14083 8913 23986 1 149.00000 418.400000
14013 8914 14402 1 149.00000 418.400000
14013 8915 14444 1 149.00000 418.400000
13012 8916 17067 1 149.00000 418.400000
14014 8917 15219 1 149.00000 418.400000
14015 8918 14650 1 149.00000 418.400000
14015 8919 14502 1 149.00000 418.400000
14015 8920 14995 1 149.00000 418.400000
14016 8921 15794 1 149.00000 418.400000
14016 8922 15831 1 149.00000 418.400000
16263 8923 22345 1 149.00000 418.400000
14018 8924 14906 1 149.00000 418.400000
14018 8925 16185 1 149.00000 418.400000
14018 8926 14816 1 149.00000 418.400000
16072 8927 23989 1 149.00000 418.400000
18103 8928 20497 1 149.00000 418.400000
14019 8929 16006 1 149.00000 418.400000
14020 8930 16204 1 149.00000 418.400000
14020 8931 16048 1 149.00000 418.400000
14020 8932 15476 1 149.00000 418.400000
14020 8933 15724 1 149.00000 418.400000
14021 8934 15882 1 149.00000 418.400000
14021 8935 15177 1 149.00000 418.400000
14022 8936 14717 1 149.00000 418.400000
14023 8937 14713 1 149.00000 418.400000
14023 8938 23377 1 149.00000 418.400000
13609 8939 14024 1 149.00000 418.400000
14025 8940 15997 1 149.00000 418.400000
14026 8941 14067 1 149.00000 418.400000
22465 8942 23233 1 149.00000 418.400000
14027 8943 15752 1 149.00000 418.400000
14027 8944 14571 1 149.00000 418.400000
14027 8945 15952 1 149.00000 418.400000
14027 8946 16180 1 149.00000 418.400000
14028 8947 15843 1 149.00000 418.400000
14028 8948 14250 1 149.00000 418.400000
14029 8949 16168 1 149.00000 418.400000
14029 8950 14977 1 149.00000 418.400000
14029 8951 15150 1 149.00000 418.400000
14029 8952 16224 1 149.00000 418.400000
14030 8953 15155 1 149.00000 418.400000
14031 8954 24268 1 149.00000 418.400000
14031 8955 14768 1 149.00000 418.400000
14031 8956 14511 1 149.00000 418.400000
14032 8957 14323 1 149.00000 418.400000
14032 8958 16270 1 149.00000 418.400000
14032 8959 15139 1 149.00000 418.400000
14034 8960 14037 1 149.00000 418.400000
19201 8961 21385 1 149.00000 418.400000
18349 8962 21289 1 149.00000 418.400000
14035 8963 16260 1 149.00000 418.400000
14036 8964 15144 1 149.00000 418.400000
14036 8965 16190 1 149.00000 418.400000
14036 8966 15981 1 149.00000 418.400000
14037 8967 15533 1 149.00000 418.400000
14038 8968 15358 1 149.00000 418.400000
14038 8969 15321 1 149.00000 418.400000
11993 8970 15857 1 149.00000 418.400000
14040 8971 16255 1 149.00000 418.400000
14040 8972 15087 1 149.00000 418.400000
14040 8973 14388 1 149.00000 418.400000
14472 8974 24437 1 149.00000 418.400000
15900 8975 22393 1 149.00000 418.400000
11923 8976 14242 1 149.00000 418.400000
14041 8977 15632 1 149.00000 418.400000
14041 8978 14700 1 149.00000 418.400000
14042 8979 16049 1 149.00000 418.400000
14042 8980 14628 1 149.00000 418.400000
14042 8981 15023 1 149.00000 418.400000
14043 8982 15376 1 149.00000 418.400000
14043 8983 14749 1 149.00000 418.400000
14044 8984 16010 1 149.00000 418.400000
14044 8985 14810 1 149.00000 418.400000
11560 8986 14933 1 149.00000 418.400000
14046 8987 16258 1 149.00000 418.400000
14046 8988 15765 1 149.00000 418.400000
14046 8989 14234 1 149.00000 418.400000
14047 8990 15802 1 149.00000 418.400000
14049 8991 15281 1 149.00000 418.400000
14049 8992 15807 1 149.00000 418.400000
14050 8993 15644 1 149.00000 418.400000
14050 8994 16105 1 149.00000 418.400000
14051 8995 14922 1 149.00000 418.400000
14053 8996 16143 1 149.00000 418.400000
14053 8997 14413 1 149.00000 418.400000
13717 8998 15440 1 149.00000 418.400000
14055 8999 14797 1 149.00000 418.400000
14055 9000 14385 1 149.00000 418.400000
20809 9001 23683 1 149.00000 418.400000
14056 9002 15964 1 149.00000 418.400000
14056 9003 15326 1 149.00000 418.400000
14056 9004 23353 1 149.00000 418.400000
15254 9005 21661 1 149.00000 418.400000
14057 9006 14386 1 149.00000 418.400000
14057 9007 16223 1 149.00000 418.400000
14057 9008 16047 1 149.00000 418.400000
14058 9009 15937 1 149.00000 418.400000
11706 9010 20377 1 149.00000 418.400000
19537 9011 23992 1 149.00000 418.400000
14192 9012 23992 1 149.00000 418.400000
14059 9013 15602 1 149.00000 418.400000
14059 9014 15129 1 149.00000 418.400000
14060 9015 14362 1 149.00000 418.400000
14362 9016 14931 1 149.00000 418.400000
14060 9017 16068 1 149.00000 418.400000
14061 9018 15430 1 149.00000 418.400000
14062 9019 14120 1 149.00000 418.400000
11872 9020 14063 1 149.00000 418.400000
14063 9021 22129 1 149.00000 418.400000
14064 9022 14979 1 149.00000 418.400000
14064 9023 15654 1 149.00000 418.400000
14065 9024 14827 1 149.00000 418.400000
14065 9025 20929 1 149.00000 418.400000
14066 9026 15650 1 149.00000 418.400000
14066 9027 15361 1 149.00000 418.400000
14066 9028 15194 1 149.00000 418.400000
14067 9029 19093 1 149.00000 418.400000
14067 9030 14444 1 149.00000 418.400000
14068 9031 15108 1 149.00000 418.400000
14068 9032 18005 1 149.00000 418.400000
13290 9033 14068 1 149.00000 418.400000
14069 9034 14392 1 149.00000 418.400000
14853 9035 20185 1 149.00000 418.400000
14071 9036 15784 1 149.00000 418.400000
14071 9037 14460 1 149.00000 418.400000
14072 9038 15303 1 149.00000 418.400000
14072 9039 14760 1 149.00000 418.400000
14073 9040 15072 1 149.00000 418.400000
14910 9041 15547 1 149.00000 418.400000
14073 9042 15547 1 149.00000 418.400000
14073 9043 15209 1 149.00000 418.400000
14074 9044 14498 1 149.00000 418.400000
14075 9045 15414 1 149.00000 418.400000
14076 9046 14785 1 149.00000 418.400000
14076 9047 15542 1 149.00000 418.400000
23293 9048 24199 1 149.00000 418.400000
14077 9049 14954 1 149.00000 418.400000
14077 9050 15858 1 149.00000 418.400000
14078 9051 14610 1 149.00000 418.400000
14078 9052 16193 1 149.00000 418.400000
14079 9053 14975 1 149.00000 418.400000
18769 9054 24007 1 149.00000 418.400000
15791 9055 18769 1 149.00000 418.400000
12409 9056 14081 1 149.00000 418.400000
14082 9057 14326 1 149.00000 418.400000
14082 9058 15969 1 149.00000 418.400000
14082 9059 14462 1 149.00000 418.400000
14083 9060 14104 1 149.00000 418.400000
13209 9061 14758 1 149.00000 418.400000
12262 9062 14084 1 149.00000 418.400000
14084 9063 14189 1 149.00000 418.400000
14084 9064 15887 1 149.00000 418.400000
14085 9065 14522 1 149.00000 418.400000
14086 9066 15614 1 149.00000 418.400000
14726 9067 16913 1 149.00000 418.400000
14087 9068 15004 1 149.00000 418.400000
14568 9069 15004 1 149.00000 418.400000
14088 9070 16179 1 149.00000 418.400000
14088 9071 14722 1 149.00000 418.400000
14089 9072 15120 1 149.00000 418.400000
12470 9073 14940 1 149.00000 418.400000
14090 9074 15566 1 149.00000 418.400000
14090 9075 14629 1 149.00000 418.400000
14091 9076 15074 1 149.00000 418.400000
14091 9077 15181 1 149.00000 418.400000
14091 9078 16232 1 149.00000 418.400000
14091 9079 15845 1 149.00000 418.400000
14092 9080 16277 1 149.00000 418.400000
14092 9081 14099 1 149.00000 418.400000
14599 9082 15509 1 149.00000 418.400000
14092 9083 15509 1 149.00000 418.400000
14093 9084 14135 1 149.00000 418.400000
12950 9085 14221 1 149.00000 418.400000
14095 9086 14871 1 149.00000 418.400000
14096 9087 15338 1 149.00000 418.400000
16131 9088 19309 1 149.00000 418.400000
15019 9089 19309 1 149.00000 418.400000
17613 9090 19309 1 149.00000 418.400000
14097 9091 21229 1 149.00000 418.400000
14097 9092 22717 1 149.00000 418.400000
14097 9093 14098 1 149.00000 418.400000
14098 9094 14298 1 149.00000 418.400000
14098 9095 16278 1 149.00000 418.400000
14099 9096 15955 1 149.00000 418.400000
14099 9097 14724 1 149.00000 418.400000
11813 9098 18493 1 149.00000 418.400000
14100 9099 15859 1 149.00000 418.400000
14100 9100 16027 1 149.00000 418.400000
14101 9101 15779 1 149.00000 418.400000
14101 9102 14306 1 149.00000 418.400000
15550 9103 23041 1 149.00000 418.400000
23041 9104 24223 1 149.00000 418.400000
14102 9105 14892 1 149.00000 418.400000
14102 9106 15893 1 149.00000 418.400000
14102 9107 14111 1 149.00000 418.400000
14103 9108 15769 1 149.00000 418.400000
14104 9109 15637 1 149.00000 418.400000
14105 9110 14133 1 149.00000 418.400000
15764 9111 22849 1 149.00000 418.400000
14105 9112 15343 1 149.00000 418.400000
14106 9113 15608 1 149.00000 418.400000
14107 9114 14797 1 149.00000 418.400000
14107 9115 14671 1 149.00000 418.400000
14107 9116 15100 1 149.00000 418.400000
14108 9117 15892 1 149.00000 418.400000
14108 9118 15040 1 149.00000 418.400000
14582 9119 15040 1 149.00000 418.400000
14108 9120 15740 1 149.00000 418.400000
14109 9121 15625 1 149.00000 418.400000
14109 9122 15560 1 149.00000 418.400000
14110 9123 16112 1 149.00000 418.400000
14110 9124 15091 1 149.00000 418.400000
14110 9125 15884 1 149.00000 418.400000
15521 9126 15884 1 149.00000 418.400000
14111 9127 16179 1 149.00000 418.400000
12606 9128 14111 1 149.00000 418.400000
14113 9129 14529 1 149.00000 418.400000
13219 9130 14114 1 149.00000 418.400000
14114 9131 14436 1 149.00000 418.400000
14114 9132 14968 1 149.00000 418.400000
14114 9133 16225 1 149.00000 418.400000
12066 9134 15766 1 149.00000 418.400000
14117 9135 15978 1 149.00000 418.400000
14117 9136 15096 1 149.00000 418.400000
14118 9137 14407 1 149.00000 418.400000
14118 9138 14227 1 149.00000 418.400000
15889 9139 22753 1 149.00000 418.400000
14416 9140 22753 1 149.00000 418.400000
14119 9141 15870 1 149.00000 418.400000
14120 9142 14595 1 149.00000 418.400000
23995 9143 24100 1 149.00000 418.400000
14367 9144 23995 1 149.00000 418.400000
14121 9145 14899 1 149.00000 418.400000
15373 9146 16027 1 149.00000 418.400000
14613 9147 15373 1 149.00000 418.400000
14123 9148 15373 1 149.00000 418.400000
14124 9149 16128 1 149.00000 418.400000
14124 9150 15442 1 149.00000 418.400000
14124 9151 14241 1 149.00000 418.400000
14125 9152 14687 1 149.00000 418.400000
14125 9153 15360 1 149.00000 418.400000
14125 9154 15404 1 149.00000 418.400000
14126 9155 15778 1 149.00000 418.400000
14127 9156 15382 1 149.00000 418.400000
14127 9157 15663 1 149.00000 418.400000
14128 9158 15426 1 149.00000 418.400000
12665 9159 14473 1 149.00000 418.400000
14129 9160 15675 1 149.00000 418.400000
14129 9161 15498 1 149.00000 418.400000
14129 9162 15205 1 149.00000 418.400000
14130 9163 14452 1 149.00000 418.400000
14130 9164 21697 1 149.00000 418.400000
14130 9165 16274 1 149.00000 418.400000
14131 9166 16172 1 149.00000 418.400000
14131 9167 15001 1 149.00000 418.400000
14132 9168 15439 1 149.00000 418.400000
14134 9169 15084 1 149.00000 418.400000
14136 9170 14949 1 149.00000 418.400000
14136 9171 16063 1 149.00000 418.400000
12366 9172 24229 1 149.00000 418.400000
14137 9173 15302 1 149.00000 418.400000
11770 9174 16160 1 149.00000 418.400000
14939 9175 15302 1 149.00000 418.400000
14138 9176 14783 1 149.00000 418.400000
14138 9177 15767 1 149.00000 418.400000
14139 9178 14558 1 149.00000 418.400000
14140 9179 15065 1 149.00000 418.400000
13639 9180 14978 1 149.00000 418.400000
14140 9181 15964 1 149.00000 418.400000
14141 9182 15702 1 149.00000 418.400000
14143 9183 20617 1 149.00000 418.400000
14143 9184 14369 1 149.00000 418.400000
14144 9185 15734 1 149.00000 418.400000
14146 9186 16091 1 149.00000 418.400000
14147 9187 14312 1 149.00000 418.400000
14148 9188 14950 1 149.00000 418.400000
18229 9189 22237 1 149.00000 418.400000
14839 9190 22237 1 149.00000 418.400000
19813 9191 22237 1 149.00000 418.400000
14149 9192 14584 1 149.00000 418.400000
17165 9193 17571 1 149.00000 418.400000
20569 9194 22081 1 149.00000 418.400000
14150 9195 16197 1 149.00000 418.400000
14151 9196 15695 1 149.00000 418.400000
14151 9197 15314 1 149.00000 418.400000
14152 9198 15164 1 149.00000 418.400000
14152 9199 15682 1 149.00000 418.400000
14152 9200 15683 1 149.00000 418.400000
14153 9201 14877 1 149.00000 418.400000
14153 9202 24256 1 149.00000 418.400000
14154 9203 15665 1 149.00000 418.400000
14154 9204 15000 1 149.00000 418.400000
14155 9205 16104 1 149.00000 418.400000
14155 9206 14436 1 149.00000 418.400000
14157 9207 16108 1 149.00000 418.400000
14157 9208 15782 1 149.00000 418.400000
14157 9209 14989 1 149.00000 418.400000
14158 9210 15294 1 149.00000 418.400000
14158 9211 16205 1 149.00000 418.400000
14158 9212 15204 1 149.00000 418.400000
14159 9213 14204 1 149.00000 418.400000
14160 9214 14811 1 149.00000 418.400000
14161 9215 15380 1 149.00000 418.400000
14250 9216 15548 1 149.00000 418.400000
14564 9217 15906 1 149.00000 418.400000
14162 9218 14564 1 149.00000 418.400000
14163 9219 14174 1 149.00000 418.400000
14164 9220 14854 1 149.00000 418.400000
14164 9221 15715 1 149.00000 418.400000
14165 9222 14992 1 149.00000 418.400000
14166 9223 14432 1 149.00000 418.400000
14166 9224 14517 1 149.00000 418.400000
14167 9225 14950 1 149.00000 418.400000
14168 9226 15086 1 149.00000 418.400000
14168 9227 14301 1 149.00000 418.400000
12195 9228 14169 1 149.00000 418.400000
14170 9229 14712 1 149.00000 418.400000
14170 9230 14331 1 149.00000 418.400000
14170 9231 15980 1 149.00000 418.400000
14173 9232 15505 1 149.00000 418.400000
14173 9233 15504 1 149.00000 418.400000
14175 9234 15136 1 149.00000 418.400000
14175 9235 14413 1 149.00000 418.400000
14176 9236 15514 1 149.00000 418.400000
14176 9237 14502 1 149.00000 418.400000
14177 9238 16003 1 149.00000 418.400000
14177 9239 14598 1 149.00000 418.400000
14178 9240 14924 1 149.00000 418.400000
14178 9241 14487 1 149.00000 418.400000
14178 9242 15830 1 149.00000 418.400000
14179 9243 16042 1 149.00000 418.400000
14179 9244 14231 1 149.00000 418.400000
14180 9245 15263 1 149.00000 418.400000
14180 9246 14478 1 149.00000 418.400000
14180 9247 24241 1 149.00000 418.400000
14181 9248 15391 1 149.00000 418.400000
14181 9249 14188 1 149.00000 418.400000
14181 9250 14298 1 149.00000 418.400000
14182 9251 14480 1 149.00000 418.400000
14182 9252 15225 1 149.00000 418.400000
14183 9253 16238 1 149.00000 418.400000
15946 9254 21805 1 149.00000 418.400000
14184 9255 14704 1 149.00000 418.400000
14184 9256 14332 1 149.00000 418.400000
14185 9257 15718 1 149.00000 418.400000
14185 9258 15427 1 149.00000 418.400000
14186 9259 15553 1 149.00000 418.400000
14186 9260 14464 1 149.00000 418.400000
14187 9261 14530 1 149.00000 418.400000
14187 9262 14898 1 149.00000 418.400000
15626 9263 17935 1 149.00000 418.400000
14700 9264 17935 1 149.00000 418.400000
14188 9265 15601 1 149.00000 418.400000
14190 9266 15441 1 149.00000 418.400000
14190 9267 14731 1 149.00000 418.400000
14190 9268 15934 1 149.00000 418.400000
14191 9269 21097 1 149.00000 418.400000
14192 9270 19657 1 149.00000 418.400000
19657 9271 24103 1 149.00000 418.400000
14193 9272 15436 1 149.00000 418.400000
14193 9273 14721 1 149.00000 418.400000
14193 9274 16108 1 149.00000 418.400000
14194 9275 15200 1 149.00000 418.400000
19297 9276 21769 1 149.00000 418.400000
14195 9277 15428 1 149.00000 418.400000
14196 9278 16245 1 149.00000 418.400000
14197 9279 15724 1 149.00000 418.400000
14197 9280 14211 1 149.00000 418.400000
14197 9281 16204 1 149.00000 418.400000
14198 9282 14306 1 149.00000 418.400000
12007 9283 15422 1 149.00000 418.400000
24004 9284 24085 1 149.00000 418.400000
14200 9285 15892 1 149.00000 418.400000
14201 9286 15518 1 149.00000 418.400000
14202 9287 14844 1 149.00000 418.400000
14202 9288 14416 1 149.00000 418.400000
14203 9289 14848 1 149.00000 418.400000
14203 9290 15399 1 149.00000 418.400000
14203 9291 15943 1 149.00000 418.400000
14204 9292 14942 1 149.00000 418.400000
14204 9293 16202 1 149.00000 418.400000
14206 9294 15722 1 149.00000 418.400000
14207 9295 15831 1 149.00000 418.400000
14207 9296 15521 1 149.00000 418.400000
14208 9297 16169 1 149.00000 418.400000
14208 9298 14456 1 149.00000 418.400000
14208 9299 14441 1 149.00000 418.400000
14209 9300 15564 1 149.00000 418.400000
14209 9301 15297 1 149.00000 418.400000
14210 9302 15619 1 149.00000 418.400000
14210 9303 15112 1 149.00000 418.400000
12112 9304 14211 1 149.00000 418.400000
14212 9305 15190 1 149.00000 418.400000
14212 9306 15410 1 149.00000 418.400000
14212 9307 14582 1 149.00000 418.400000
14213 9308 15117 1 149.00000 418.400000
14215 9309 16036 1 149.00000 418.400000
14216 9310 14479 1 149.00000 418.400000
14216 9311 15303 1 149.00000 418.400000
14217 9312 15067 1 149.00000 418.400000
14217 9313 15956 1 149.00000 418.400000
14217 9314 14720 1 149.00000 418.400000
14219 9315 15270 1 149.00000 418.400000
14219 9316 14936 1 149.00000 418.400000
14220 9317 15904 1 149.00000 418.400000
14223 9318 14381 1 149.00000 418.400000
14223 9319 16175 1 149.00000 418.400000
14223 9320 14614 1 149.00000 418.400000
14224 9321 14624 1 149.00000 418.400000
14224 9322 16207 1 149.00000 418.400000
14225 9323 15300 1 149.00000 418.400000
14226 9324 15285 1 149.00000 418.400000
14226 9325 15072 1 149.00000 418.400000
14228 9326 15382 1 149.00000 418.400000
14228 9327 15426 1 149.00000 418.400000
14229 9328 15357 1 149.00000 418.400000
11871 9329 12613 1 149.00000 418.400000
14230 9330 15076 1 149.00000 418.400000
14231 9331 14742 1 149.00000 418.400000
14231 9332 15886 1 149.00000 418.400000
14231 9333 15593 1 149.00000 418.400000
14232 9334 15114 1 149.00000 418.400000
13215 9335 14232 1 149.00000 418.400000
14233 9336 14866 1 149.00000 418.400000
14234 9337 15440 1 149.00000 418.400000
14234 9338 14908 1 149.00000 418.400000
14235 9339 16129 1 149.00000 418.400000
14236 9340 15288 1 149.00000 418.400000
14236 9341 15609 1 149.00000 418.400000
14237 9342 15924 1 149.00000 418.400000
14237 9343 14733 1 149.00000 418.400000
14238 9344 24193 1 149.00000 418.400000
14238 9345 15698 1 149.00000 418.400000
14239 9346 15012 1 149.00000 418.400000
14240 9347 14740 1 149.00000 418.400000
24007 9348 24467 1 149.00000 418.400000
14241 9349 15564 1 149.00000 418.400000
14242 9350 14552 1 149.00000 418.400000
14243 9351 14467 1 149.00000 418.400000
12303 9352 14243 1 149.00000 418.400000
14244 9353 15852 1 149.00000 418.400000
14245 9354 16021 1 149.00000 418.400000
14246 9355 14709 1 149.00000 418.400000
14246 9356 15418 1 149.00000 418.400000
14247 9357 14636 1 149.00000 418.400000
14248 9358 15580 1 149.00000 418.400000
14592 9359 15568 1 149.00000 418.400000
14248 9360 14592 1 149.00000 418.400000
14249 9361 15406 1 149.00000 418.400000
14161 9362 15548 1 149.00000 418.400000
14251 9363 15672 1 149.00000 418.400000
14251 9364 14314 1 149.00000 418.400000
14252 9365 15451 1 149.00000 418.400000
14252 9366 14798 1 149.00000 418.400000
14252 9367 15785 1 149.00000 418.400000
14253 9368 16089 1 149.00000 418.400000
14253 9369 15602 1 149.00000 418.400000
14254 9370 14508 1 149.00000 418.400000
14255 9371 14695 1 149.00000 418.400000
14255 9372 15716 1 149.00000 418.400000
14256 9373 15798 1 149.00000 418.400000
14257 9374 14701 1 149.00000 418.400000
15868 9375 24010 1 149.00000 418.400000
14258 9376 15915 1 149.00000 418.400000
14258 9377 15267 1 149.00000 418.400000
14259 9378 15250 1 149.00000 418.400000
14259 9379 14493 1 149.00000 418.400000
14260 9380 14973 1 149.00000 418.400000
14260 9381 16127 1 149.00000 418.400000
14261 9382 15912 1 149.00000 418.400000
14261 9383 14321 1 149.00000 418.400000
13892 9384 14262 1 149.00000 418.400000
14263 9385 16204 1 149.00000 418.400000
14263 9386 14526 1 149.00000 418.400000
14263 9387 16048 1 149.00000 418.400000
15808 9388 21721 1 149.00000 418.400000
14264 9389 15325 1 149.00000 418.400000
14264 9390 14348 1 149.00000 418.400000
14265 9391 15404 1 149.00000 418.400000
14266 9392 14534 1 149.00000 418.400000
14267 9393 14554 1 149.00000 418.400000
14267 9394 18625 1 149.00000 418.400000
14267 9395 21121 1 149.00000 418.400000
14268 9396 15901 1 149.00000 418.400000
14270 9397 15476 1 149.00000 418.400000
14270 9398 14690 1 149.00000 418.400000
14270 9399 15959 1 149.00000 418.400000
14271 9400 14348 1 149.00000 418.400000
14272 9401 14432 1 149.00000 418.400000
14273 9402 24274 1 149.00000 418.400000
14273 9403 14458 1 149.00000 418.400000
14274 9404 14994 1 149.00000 418.400000
22153 9405 24013 1 149.00000 418.400000
14277 9406 15038 1 149.00000 418.400000
14278 9407 15455 1 149.00000 418.400000
14278 9408 15934 1 149.00000 418.400000
14279 9409 15689 1 149.00000 418.400000
14280 9410 15369 1 149.00000 418.400000
14280 9411 15935 1 149.00000 418.400000
14281 9412 14306 1 149.00000 418.400000
14281 9413 15226 1 149.00000 418.400000
14282 9414 15235 1 149.00000 418.400000
14283 9415 14661 1 149.00000 418.400000
14283 9416 15391 1 149.00000 418.400000
14283 9417 14980 1 149.00000 418.400000
14283 9418 16278 1 149.00000 418.400000
14284 9419 14583 1 149.00000 418.400000
14285 9420 15957 1 149.00000 418.400000
12792 9421 14285 1 149.00000 418.400000
14285 9422 15018 1 149.00000 418.400000
14286 9423 14617 1 149.00000 418.400000
14286 9424 20497 1 149.00000 418.400000
14286 9425 15536 1 149.00000 418.400000
14287 9426 14352 1 149.00000 418.400000
14288 9427 14928 1 149.00000 418.400000
14289 9428 14508 1 149.00000 418.400000
14289 9429 16249 1 149.00000 418.400000
14675 9430 24016 1 149.00000 418.400000
14290 9431 15673 1 149.00000 418.400000
14291 9432 14368 1 149.00000 418.400000
14291 9433 14976 1 149.00000 418.400000
14292 9434 16236 1 149.00000 418.400000
14293 9435 15718 1 149.00000 418.400000
14293 9436 16208 1 149.00000 418.400000
14294 9437 14460 1 149.00000 418.400000
14296 9438 14801 1 149.00000 418.400000
14296 9439 16265 1 149.00000 418.400000
14297 9440 15001 1 149.00000 418.400000
14298 9441 24166 1 149.00000 418.400000
14299 9442 15157 1 149.00000 418.400000
14299 9443 15854 1 149.00000 418.400000
14300 9444 15789 1 149.00000 418.400000
14301 9445 14639 1 149.00000 418.400000
14301 9446 15225 1 149.00000 418.400000
14301 9447 14635 1 149.00000 418.400000
14302 9448 15510 1 149.00000 418.400000
14302 9449 14700 1 149.00000 418.400000
14302 9450 15851 1 149.00000 418.400000
14303 9451 16140 1 149.00000 418.400000
13770 9452 14326 1 149.00000 418.400000
14304 9453 15262 1 149.00000 418.400000
14304 9454 14412 1 149.00000 418.400000
14305 9455 14984 1 149.00000 418.400000
16158 9456 16521 1 149.00000 418.400000
14306 9457 14886 1 149.00000 418.400000
20989 9458 24019 1 149.00000 418.400000
14307 9459 15310 1 149.00000 418.400000
14307 9460 20149 1 149.00000 418.400000
14308 9461 15968 1 149.00000 418.400000
14308 9462 15763 1 149.00000 418.400000
14308 9463 14824 1 149.00000 418.400000
14707 9464 16549 1 149.00000 418.400000
12669 9465 14564 1 149.00000 418.400000
14309 9466 14768 1 149.00000 418.400000
14310 9467 15482 1 149.00000 418.400000
14310 9468 14643 1 149.00000 418.400000
12421 9469 14311 1 149.00000 418.400000
14311 9470 15818 1 149.00000 418.400000
14311 9471 24223 1 149.00000 418.400000
14313 9472 15476 1 149.00000 418.400000
14314 9473 14427 1 149.00000 418.400000
14314 9474 15979 1 149.00000 418.400000
14315 9475 16262 1 149.00000 418.400000
14315 9476 14884 1 149.00000 418.400000
14315 9477 14828 1 149.00000 418.400000
14316 9478 15787 1 149.00000 418.400000
14317 9479 20665 1 149.00000 418.400000
14317 9480 15668 1 149.00000 418.400000
14318 9481 14644 1 149.00000 418.400000
14319 9482 15220 1 149.00000 418.400000
14320 9483 15186 1 149.00000 418.400000
14321 9484 16202 1 149.00000 418.400000
14261 9485 14577 1 149.00000 418.400000
12245 9486 15025 1 149.00000 418.400000
14322 9487 14371 1 149.00000 418.400000
14323 9488 16119 1 149.00000 418.400000
14323 9489 14945 1 149.00000 418.400000
14324 9490 14764 1 149.00000 418.400000
14324 9491 14576 1 149.00000 418.400000
17305 9492 21097 1 149.00000 418.400000
14325 9493 15421 1 149.00000 418.400000
14326 9494 14450 1 149.00000 418.400000
14327 9495 15115 1 149.00000 418.400000
14328 9496 14708 1 149.00000 418.400000
14329 9497 15356 1 149.00000 418.400000
14329 9498 14825 1 149.00000 418.400000
14330 9499 15313 1 149.00000 418.400000
15727 9500 17221 1 149.00000 418.400000
14332 9501 14348 1 149.00000 418.400000
14332 9502 14787 1 149.00000 418.400000
14334 9503 16144 1 149.00000 418.400000
14335 9504 24175 1 149.00000 418.400000
15499 9505 15958 1 149.00000 418.400000
15499 9506 19645 1 149.00000 418.400000
14336 9507 15402 1 149.00000 418.400000
13327 9508 14336 1 149.00000 418.400000
14337 9509 14911 1 149.00000 418.400000
12394 9510 15435 1 149.00000 418.400000
14338 9511 14398 1 149.00000 418.400000
14338 9512 15325 1 149.00000 418.400000
14340 9513 14372 1 149.00000 418.400000
14340 9514 14858 1 149.00000 418.400000
14340 9515 14773 1 149.00000 418.400000
14340 9516 16202 1 149.00000 418.400000
11949 9517 15421 1 149.00000 418.400000
14342 9518 15560 1 149.00000 418.400000
14343 9519 14488 1 149.00000 418.400000
14914 9520 23245 1 149.00000 418.400000
14344 9521 14425 1 149.00000 418.400000
14345 9522 16275 1 149.00000 418.400000
14346 9523 16132 1 149.00000 418.400000
14346 9524 16074 1 149.00000 418.400000
14347 9525 15565 1 149.00000 418.400000
15042 9526 20665 1 149.00000 418.400000
14349 9527 15351 1 149.00000 418.400000
14349 9528 15571 1 149.00000 418.400000
14350 9529 14421 1 149.00000 418.400000
14350 9530 14493 1 149.00000 418.400000
14350 9531 15388 1 149.00000 418.400000
15012 9532 15500 1 149.00000 418.400000
14351 9533 15012 1 149.00000 418.400000
14351 9534 16225 1 149.00000 418.400000
14352 9535 14807 1 149.00000 418.400000
14353 9536 15761 1 149.00000 418.400000
14353 9537 15240 1 149.00000 418.400000
14354 9538 14529 1 149.00000 418.400000
14354 9539 16111 1 149.00000 418.400000
14355 9540 14479 1 149.00000 418.400000
14356 9541 18637 1 149.00000 418.400000
14356 9542 16409 1 149.00000 418.400000
14356 9543 15735 1 149.00000 418.400000
14356 9544 14751 1 149.00000 418.400000
14357 9545 15039 1 149.00000 418.400000
14358 9546 16107 1 149.00000 418.400000
14780 9547 24025 1 149.00000 418.400000
14475 9548 24025 1 149.00000 418.400000
15409 9549 20701 1 149.00000 418.400000
14360 9550 15055 1 149.00000 418.400000
14360 9551 15122 1 149.00000 418.400000
14361 9552 15836 1 149.00000 418.400000
14361 9553 15760 1 149.00000 418.400000
14361 9554 14871 1 149.00000 418.400000
14362 9555 15365 1 149.00000 418.400000
14363 9556 18649 1 149.00000 418.400000
14363 9557 24049 1 149.00000 418.400000
21325 9558 24136 1 149.00000 418.400000
14364 9559 14817 1 149.00000 418.400000
14364 9560 15458 1 149.00000 418.400000
14365 9561 22705 1 149.00000 418.400000
14365 9562 19873 1 149.00000 418.400000
14712 9563 19045 1 149.00000 418.400000
14366 9564 14724 1 149.00000 418.400000
14367 9565 16082 1 149.00000 418.400000
14367 9566 15902 1 149.00000 418.400000
14291 9567 15233 1 149.00000 418.400000
13719 9568 17641 1 149.00000 418.400000
14369 9569 15300 1 149.00000 418.400000
14369 9570 14845 1 149.00000 418.400000
14370 9571 14807 1 149.00000 418.400000
14372 9572 14943 1 149.00000 418.400000
14373 9573 15660 1 149.00000 418.400000
14374 9574 18613 1 149.00000 418.400000
14374 9575 19477 1 149.00000 418.400000
14375 9576 15975 1 149.00000 418.400000
14375 9577 16180 1 149.00000 418.400000
14376 9578 16007 1 149.00000 418.400000
14377 9579 14865 1 149.00000 418.400000
14378 9580 16223 1 149.00000 418.400000
14379 9581 20425 1 149.00000 418.400000
14379 9582 15537 1 149.00000 418.400000
14379 9583 17977 1 149.00000 418.400000
14382 9584 16012 1 149.00000 418.400000
14382 9585 15526 1 149.00000 418.400000
14383 9586 16052 1 149.00000 418.400000
14384 9587 15791 1 149.00000 418.400000
14385 9588 15972 1 149.00000 418.400000
14385 9589 15971 1 149.00000 418.400000
14385 9590 15208 1 149.00000 418.400000
14387 9591 14699 1 149.00000 418.400000
14387 9592 14751 1 149.00000 418.400000
14388 9593 15537 1 149.00000 418.400000
14388 9594 15410 1 149.00000 418.400000
14389 9595 15682 1 149.00000 418.400000
14389 9596 14463 1 149.00000 418.400000
14997 9597 15682 1 149.00000 418.400000
14390 9598 14485 1 149.00000 418.400000
14390 9599 15793 1 149.00000 418.400000
14391 9600 15541 1 149.00000 418.400000
14618 9601 24028 1 149.00000 418.400000
24028 9602 24139 1 149.00000 418.400000
14392 9603 24094 1 149.00000 418.400000
14393 9604 15745 1 149.00000 418.400000
14393 9605 14529 1 149.00000 418.400000
15518 9606 21013 1 149.00000 418.400000
14394 9607 15334 1 149.00000 418.400000
14394 9608 15592 1 149.00000 418.400000
14395 9609 15844 1 149.00000 418.400000
15844 9610 15866 1 149.00000 418.400000
15751 9611 15844 1 149.00000 418.400000
14396 9612 15922 1 149.00000 418.400000
14396 9613 15361 1 149.00000 418.400000
14397 9614 15059 1 149.00000 418.400000
14397 9615 15387 1 149.00000 418.400000
14399 9616 15372 1 149.00000 418.400000
14399 9617 16141 1 149.00000 418.400000
14400 9618 15544 1 149.00000 418.400000
14401 9619 15080 1 149.00000 418.400000
14402 9620 16173 1 149.00000 418.400000
14780 9621 19861 1 149.00000 418.400000
16787 9622 20749 1 149.00000 418.400000
14406 9623 15896 1 149.00000 418.400000
14406 9624 15880 1 149.00000 418.400000
14406 9625 15703 1 149.00000 418.400000
14408 9626 15926 1 149.00000 418.400000
14408 9627 15141 1 149.00000 418.400000
14408 9628 15172 1 149.00000 418.400000
14408 9629 14489 1 149.00000 418.400000
14409 9630 15843 1 149.00000 418.400000
14409 9631 14703 1 149.00000 418.400000
14410 9632 15427 1 149.00000 418.400000
15252 9633 15427 1 149.00000 418.400000
14410 9634 16208 1 149.00000 418.400000
14411 9635 14775 1 149.00000 418.400000
14411 9636 14847 1 149.00000 418.400000
14412 9637 15415 1 149.00000 418.400000
14413 9638 16126 1 149.00000 418.400000
14413 9639 16209 1 149.00000 418.400000
14414 9640 14946 1 149.00000 418.400000
14415 9641 14702 1 149.00000 418.400000
14416 9642 19477 1 149.00000 418.400000
14416 9643 18173 1 149.00000 418.400000
16028 9644 24442 1 149.00000 418.400000
18313 9645 24442 1 149.00000 418.400000
14417 9646 15725 1 149.00000 418.400000
14417 9647 15569 1 149.00000 418.400000
18601 9648 24115 1 149.00000 418.400000
14419 9649 15485 1 149.00000 418.400000
14419 9650 15727 1 149.00000 418.400000
14419 9651 15909 1 149.00000 418.400000
14420 9652 24181 1 149.00000 418.400000
15021 9653 24031 1 149.00000 418.400000
15616 9654 19009 1 149.00000 418.400000
15286 9655 15471 1 149.00000 418.400000
14423 9656 15471 1 149.00000 418.400000
14424 9657 15068 1 149.00000 418.400000
14425 9658 15313 1 149.00000 418.400000
14425 9659 15005 1 149.00000 418.400000
14425 9660 15917 1 149.00000 418.400000
14426 9661 15579 1 149.00000 418.400000
14426 9662 14827 1 149.00000 418.400000
14426 9663 14506 1 149.00000 418.400000
14427 9664 15770 1 149.00000 418.400000
14428 9665 24052 1 149.00000 418.400000
14428 9666 14786 1 149.00000 418.400000
14429 9667 15694 1 149.00000 418.400000
14429 9668 18757 1 149.00000 418.400000
14429 9669 14575 1 149.00000 418.400000
14429 9670 15384 1 149.00000 418.400000
14430 9671 14619 1 149.00000 418.400000
21289 9672 24034 1 149.00000 418.400000
16081 9673 23437 1 149.00000 418.400000
14431 9674 14707 1 149.00000 418.400000
14432 9675 15713 1 149.00000 418.400000
14433 9676 14566 1 149.00000 418.400000
14434 9677 15199 1 149.00000 418.400000
14434 9678 22897 1 149.00000 418.400000
14434 9679 22273 1 149.00000 418.400000
14435 9680 16113 1 149.00000 418.400000
14435 9681 14801 1 149.00000 418.400000
14435 9682 14932 1 149.00000 418.400000
16171 9683 20989 1 149.00000 418.400000
14436 9684 14806 1 149.00000 418.400000
14437 9685 15458 1 149.00000 418.400000
14437 9686 15212 1 149.00000 418.400000
15465 9687 16203 1 149.00000 418.400000
14438 9688 16203 1 149.00000 418.400000
14439 9689 15903 1 149.00000 418.400000
20461 9690 23257 1 149.00000 418.400000
18649 9691 24477 1 149.00000 418.400000
14440 9692 15856 1 149.00000 418.400000
14441 9693 16190 1 149.00000 418.400000
14442 9694 14647 1 149.00000 418.400000
14442 9695 15215 1 149.00000 418.400000
14443 9696 16169 1 149.00000 418.400000
14443 9697 15367 1 149.00000 418.400000
14444 9698 14827 1 149.00000 418.400000
14445 9699 15305 1 149.00000 418.400000
14445 9700 15909 1 149.00000 418.400000
14445 9701 20101 1 149.00000 418.400000
14446 9702 14464 1 149.00000 418.400000
14446 9703 15107 1 149.00000 418.400000
14446 9704 15669 1 149.00000 418.400000
14447 9705 15704 1 149.00000 418.400000
14447 9706 15588 1 149.00000 418.400000
14603 9707 15704 1 149.00000 418.400000
14448 9708 15606 1 149.00000 418.400000
11572 9709 14449 1 149.00000 418.400000
14450 9710 15423 1 149.00000 418.400000
14450 9711 15369 1 149.00000 418.400000
14451 9712 14826 1 149.00000 418.400000
14451 9713 14985 1 149.00000 418.400000
14452 9714 15636 1 149.00000 418.400000
14452 9715 15390 1 149.00000 418.400000
14453 9716 16249 1 149.00000 418.400000
14453 9717 14685 1 149.00000 418.400000
14454 9718 14460 1 149.00000 418.400000
14455 9719 15506 1 149.00000 418.400000
14455 9720 14982 1 149.00000 418.400000
14455 9721 14632 1 149.00000 418.400000
14457 9722 14939 1 149.00000 418.400000
14457 9723 15643 1 149.00000 418.400000
14459 9724 15518 1 149.00000 418.400000
14460 9725 14699 1 149.00000 418.400000
14461 9726 15718 1 149.00000 418.400000
11719 9727 20653 1 149.00000 418.400000
14462 9728 15423 1 149.00000 418.400000
15050 9729 15329 1 149.00000 418.400000
14463 9730 15329 1 149.00000 418.400000
14465 9731 15394 1 149.00000 418.400000
14466 9732 15222 1 149.00000 418.400000
14466 9733 15754 1 149.00000 418.400000
14466 9734 18673 1 149.00000 418.400000
14466 9735 16099 1 149.00000 418.400000
14467 9736 14732 1 149.00000 418.400000
14467 9737 15163 1 149.00000 418.400000
14467 9738 15209 1 149.00000 418.400000
14468 9739 15332 1 149.00000 418.400000
12766 9740 21481 1 149.00000 418.400000
14470 9741 15265 1 149.00000 418.400000
14471 9742 15085 1 149.00000 418.400000
14471 9743 19141 1 149.00000 418.400000
14472 9744 24241 1 149.00000 418.400000
14472 9745 15841 1 149.00000 418.400000
14473 9746 15312 1 149.00000 418.400000
14473 9747 15480 1 149.00000 418.400000
14474 9748 16184 1 149.00000 418.400000
14475 9749 16191 1 149.00000 418.400000
14475 9750 24064 1 149.00000 418.400000
14476 9751 22273 1 149.00000 418.400000
14476 9752 15344 1 149.00000 418.400000
14476 9753 15111 1 149.00000 418.400000
14477 9754 14837 1 149.00000 418.400000
14478 9755 24046 1 149.00000 418.400000
14478 9756 24250 1 149.00000 418.400000
14482 9757 14883 1 149.00000 418.400000
14482 9758 14754 1 149.00000 418.400000
14594 9759 15180 1 149.00000 418.400000
14484 9760 14594 1 149.00000 418.400000
14485 9761 14503 1 149.00000 418.400000
14486 9762 16077 1 149.00000 418.400000
14486 9763 15041 1 149.00000 418.400000
14510 9764 17039 1 149.00000 418.400000
17039 9765 17655 1 149.00000 418.400000
14487 9766 24169 1 149.00000 418.400000
14488 9767 14934 1 149.00000 418.400000
14488 9768 15062 1 149.00000 418.400000
14489 9769 14561 1 149.00000 418.400000
14489 9770 15263 1 149.00000 418.400000
14490 9771 16220 1 149.00000 418.400000
14490 9772 15539 1 149.00000 418.400000
14491 9773 15198 1 149.00000 418.400000
15641 9774 24046 1 149.00000 418.400000
14492 9775 15528 1 149.00000 418.400000
14493 9776 16175 1 149.00000 418.400000
14259 9777 14969 1 149.00000 418.400000
14494 9778 15687 1 149.00000 418.400000
14494 9779 15235 1 149.00000 418.400000
14495 9780 15919 1 149.00000 418.400000
14496 9781 15748 1 149.00000 418.400000
14496 9782 16060 1 149.00000 418.400000
14497 9783 16066 1 149.00000 418.400000
14497 9784 14634 1 149.00000 418.400000
14497 9785 15287 1 149.00000 418.400000
14498 9786 15715 1 149.00000 418.400000
14499 9787 14560 1 149.00000 418.400000
13013 9788 14499 1 149.00000 418.400000
14500 9789 15532 1 149.00000 418.400000
14501 9790 15928 1 149.00000 418.400000
14501 9791 15176 1 149.00000 418.400000
14501 9792 20629 1 149.00000 418.400000
14503 9793 16271 1 149.00000 418.400000
14504 9794 15738 1 149.00000 418.400000
14504 9795 15422 1 149.00000 418.400000
14505 9796 14829 1 149.00000 418.400000
14505 9797 17193 1 149.00000 418.400000
14507 9798 15029 1 149.00000 418.400000
14507 9799 15266 1 149.00000 418.400000
14509 9800 14777 1 149.00000 418.400000
14509 9801 15247 1 149.00000 418.400000
14510 9802 14880 1 149.00000 418.400000
14510 9803 21757 1 149.00000 418.400000
14512 9804 19393 1 149.00000 418.400000
14514 9805 14651 1 149.00000 418.400000
16247 9806 24052 1 149.00000 418.400000
14515 9807 24298 1 149.00000 418.400000
15989 9808 21937 1 149.00000 418.400000
14516 9809 14593 1 149.00000 418.400000
14516 9810 15201 1 149.00000 418.400000
14517 9811 14556 1 149.00000 418.400000
14517 9812 16186 1 149.00000 418.400000
14518 9813 14525 1 149.00000 418.400000
14518 9814 16107 1 149.00000 418.400000
14518 9815 15431 1 149.00000 418.400000
14519 9816 14641 1 149.00000 418.400000
13306 9817 14520 1 149.00000 418.400000
14520 9818 15885 1 149.00000 418.400000
14521 9819 15532 1 149.00000 418.400000
14521 9820 15686 1 149.00000 418.400000
14523 9821 14895 1 149.00000 418.400000
14662 9822 24055 1 149.00000 418.400000
20497 9823 24055 1 149.00000 418.400000
14805 9824 22357 1 149.00000 418.400000
15941 9825 24058 1 149.00000 418.400000
14525 9826 15908 1 149.00000 418.400000
14526 9827 20281 1 149.00000 418.400000
14526 9828 24139 1 149.00000 418.400000
14527 9829 15573 1 149.00000 418.400000
14527 9830 14881 1 149.00000 418.400000
14528 9831 15973 1 149.00000 418.400000
14528 9832 15599 1 149.00000 418.400000
14528 9833 16092 1 149.00000 418.400000
14529 9834 15389 1 149.00000 418.400000
14530 9835 24271 1 149.00000 418.400000
14531 9836 14690 1 149.00000 418.400000
13583 9837 14531 1 149.00000 418.400000
14531 9838 15039 1 149.00000 418.400000
12789 9839 14533 1 149.00000 418.400000
14533 9840 15128 1 149.00000 418.400000
14534 9841 14887 1 149.00000 418.400000
14534 9842 14612 1 149.00000 418.400000
14536 9843 14700 1 149.00000 418.400000
14536 9844 24301 1 149.00000 418.400000
14538 9845 16074 1 149.00000 418.400000
11485 9846 14538 1 149.00000 418.400000
11316 9847 14538 1 149.00000 418.400000
14539 9848 14820 1 149.00000 418.400000
14540 9849 15303 1 149.00000 418.400000
14540 9850 16154 1 149.00000 418.400000
14541 9851 15587 1 149.00000 418.400000
19933 9852 24061 1 149.00000 418.400000
16177 9853 24061 1 149.00000 418.400000
14542 9854 16236 1 149.00000 418.400000
14544 9855 15660 1 149.00000 418.400000
14544 9856 14649 1 149.00000 418.400000
14545 9857 15940 1 149.00000 418.400000
14546 9858 21877 1 149.00000 418.400000
14546 9859 16899 1 149.00000 418.400000
14547 9860 15392 1 149.00000 418.400000
14547 9861 15208 1 149.00000 418.400000
14548 9862 15882 1 149.00000 418.400000
14548 9863 15886 1 149.00000 418.400000
14549 9864 14711 1 149.00000 418.400000
14550 9865 14768 1 149.00000 418.400000
14550 9866 15448 1 149.00000 418.400000
14551 9867 15194 1 149.00000 418.400000
14551 9868 16131 1 149.00000 418.400000
14551 9869 15313 1 149.00000 418.400000
14552 9870 14738 1 149.00000 418.400000
14553 9871 15683 1 149.00000 418.400000
14553 9872 15846 1 149.00000 418.400000
14554 9873 15121 1 149.00000 418.400000
14554 9874 14709 1 149.00000 418.400000
14555 9875 16134 1 149.00000 418.400000
14555 9876 15475 1 149.00000 418.400000
14556 9877 16661 1 149.00000 418.400000
14556 9878 15221 1 149.00000 418.400000
14557 9879 15248 1 149.00000 418.400000
14558 9880 16161 1 149.00000 418.400000
14558 9881 15264 1 149.00000 418.400000
14559 9882 15292 1 149.00000 418.400000
14559 9883 15196 1 149.00000 418.400000
14560 9884 14706 1 149.00000 418.400000
14563 9885 16237 1 149.00000 418.400000
14566 9886 16234 1 149.00000 418.400000
12827 9887 15102 1 149.00000 418.400000
14568 9888 15813 1 149.00000 418.400000
12827 9889 14568 1 149.00000 418.400000
14569 9890 15903 1 149.00000 418.400000
14569 9891 16046 1 149.00000 418.400000
12635 9892 14569 1 149.00000 418.400000
14570 9893 14819 1 149.00000 418.400000
14570 9894 15683 1 149.00000 418.400000
14571 9895 15990 1 149.00000 418.400000
14572 9896 14945 1 149.00000 418.400000
14573 9897 16235 1 149.00000 418.400000
14573 9898 15050 1 149.00000 418.400000
14574 9899 23089 1 149.00000 418.400000
14576 9900 15135 1 149.00000 418.400000
14576 9901 15580 1 149.00000 418.400000
14576 9902 14598 1 149.00000 418.400000
19021 9903 19105 1 149.00000 418.400000
19021 9904 20041 1 149.00000 418.400000
15502 9905 19021 1 149.00000 418.400000
14577 9906 14982 1 149.00000 418.400000
14577 9907 15875 1 149.00000 418.400000
14578 9908 15035 1 149.00000 418.400000
14578 9909 15148 1 149.00000 418.400000
14867 9910 24064 1 149.00000 418.400000
14580 9911 15509 1 149.00000 418.400000
14581 9912 16054 1 149.00000 418.400000
14582 9913 15729 1 149.00000 418.400000
14585 9914 15411 1 149.00000 418.400000
14585 9915 14771 1 149.00000 418.400000
14586 9916 14761 1 149.00000 418.400000
14587 9917 15906 1 149.00000 418.400000
14587 9918 14798 1 149.00000 418.400000
14588 9919 15106 1 149.00000 418.400000
14588 9920 15694 1 149.00000 418.400000
14589 9921 15696 1 149.00000 418.400000
13964 9922 14590 1 149.00000 418.400000
12662 9923 16238 1 149.00000 418.400000
14591 9924 16144 1 149.00000 418.400000
14591 9925 14816 1 149.00000 418.400000
14592 9926 15221 1 149.00000 418.400000
21877 9927 24220 1 149.00000 418.400000
14593 9928 15825 1 149.00000 418.400000
14595 9929 15195 1 149.00000 418.400000
15748 9930 22045 1 149.00000 418.400000
14596 9931 15930 1 149.00000 418.400000
14596 9932 15239 1 149.00000 418.400000
14597 9933 15812 1 149.00000 418.400000
14598 9934 14903 1 149.00000 418.400000
14599 9935 14649 1 149.00000 418.400000
14600 9936 15355 1 149.00000 418.400000
14600 9937 15257 1 149.00000 418.400000
13303 9938 14601 1 149.00000 418.400000
12201 9939 14602 1 149.00000 418.400000
13897 9940 14906 1 149.00000 418.400000
14603 9941 15860 1 149.00000 418.400000
14603 9942 14687 1 149.00000 418.400000
14605 9943 14898 1 149.00000 418.400000
14606 9944 15365 1 149.00000 418.400000
14607 9945 15699 1 149.00000 418.400000
14607 9946 15030 1 149.00000 418.400000
14608 9947 15565 1 149.00000 418.400000
14608 9948 15054 1 149.00000 418.400000
15351 9949 24067 1 149.00000 418.400000
19489 9950 24067 1 149.00000 418.400000
14609 9951 15454 1 149.00000 418.400000
14609 9952 15363 1 149.00000 418.400000
14609 9953 15350 1 149.00000 418.400000
14609 9954 15446 1 149.00000 418.400000
11457 9955 15200 1 149.00000 418.400000
14612 9956 14693 1 149.00000 418.400000
14613 9957 15545 1 149.00000 418.400000
14614 9958 15513 1 149.00000 418.400000
14615 9959 15939 1 149.00000 418.400000
14615 9960 16027 1 149.00000 418.400000
14616 9961 15412 1 149.00000 418.400000
14617 9962 15921 1 149.00000 418.400000
14617 9963 14662 1 149.00000 418.400000
14618 9964 15315 1 149.00000 418.400000
21349 9965 24070 1 149.00000 418.400000
15995 9966 24070 1 149.00000 418.400000
14619 9967 14833 1 149.00000 418.400000
14620 9968 14909 1 149.00000 418.400000
14395 9969 14620 1 149.00000 418.400000
14621 9970 15138 1 149.00000 418.400000
14623 9971 19321 1 149.00000 418.400000
14623 9972 14907 1 149.00000 418.400000
14624 9973 15400 1 149.00000 418.400000
13529 9974 14625 1 149.00000 418.400000
14625 9975 14946 1 149.00000 418.400000
14626 9976 15614 1 149.00000 418.400000
14627 9977 15475 1 149.00000 418.400000
16016 9978 20161 1 149.00000 418.400000
13454 9979 14629 1 149.00000 418.400000
14629 9980 14790 1 149.00000 418.400000
13047 9981 14730 1 149.00000 418.400000
14631 9982 15929 1 149.00000 418.400000
14632 9983 15067 1 149.00000 418.400000
14633 9984 15402 1 149.00000 418.400000
14633 9985 15591 1 149.00000 418.400000
14634 9986 16211 1 149.00000 418.400000
14636 9987 15349 1 149.00000 418.400000
14637 9988 15080 1 149.00000 418.400000
14637 9989 15555 1 149.00000 418.400000
16731 9990 19957 1 149.00000 418.400000
14638 9991 23377 1 149.00000 418.400000
14638 9992 19297 1 149.00000 418.400000
22153 9993 24184 1 149.00000 418.400000
15175 9994 15515 1 149.00000 418.400000
15515 9995 22153 1 149.00000 418.400000
14639 9996 15708 1 149.00000 418.400000
14642 9997 15274 1 149.00000 418.400000
14642 9998 15621 1 149.00000 418.400000
12581 9999 14643 1 149.00000 418.400000
14643 10000 14727 1 149.00000 418.400000
14643 10001 15552 1 149.00000 418.400000
14645 10002 15211 1 149.00000 418.400000
14645 10003 15323 1 149.00000 418.400000
14645 10004 16007 1 149.00000 418.400000
14646 10005 15908 1 149.00000 418.400000
14646 10006 15058 1 149.00000 418.400000
14647 10007 16149 1 149.00000 418.400000
14648 10008 15158 1 149.00000 418.400000
14649 10009 15109 1 149.00000 418.400000
14650 10010 14735 1 149.00000 418.400000
14650 10011 16168 1 149.00000 418.400000
24076 10012 24097 1 149.00000 418.400000
14652 10013 15615 1 149.00000 418.400000
14652 10014 15192 1 149.00000 418.400000
14653 10015 14957 1 149.00000 418.400000
14654 10016 15716 1 149.00000 418.400000
14654 10017 15914 1 149.00000 418.400000
14655 10018 15699 1 149.00000 418.400000
14655 10019 15219 1 149.00000 418.400000
14655 10020 15649 1 149.00000 418.400000
14747 10021 24079 1 149.00000 418.400000
12969 10022 14656 1 149.00000 418.400000
14656 10023 16016 1 149.00000 418.400000
12969 10024 16167 1 149.00000 418.400000
14657 10025 15570 1 149.00000 418.400000
14658 10026 15933 1 149.00000 418.400000
14659 10027 14947 1 149.00000 418.400000
13771 10028 14659 1 149.00000 418.400000
14661 10029 15223 1 149.00000 418.400000
14663 10030 19693 1 149.00000 418.400000
14664 10031 14867 1 149.00000 418.400000
13166 10032 15091 1 149.00000 418.400000
14665 10033 17711 1 149.00000 418.400000
20089 10034 21853 1 149.00000 418.400000
15190 10035 20089 1 149.00000 418.400000
19321 10036 20089 1 149.00000 418.400000
14668 10037 16253 1 149.00000 418.400000
12336 10038 14668 1 149.00000 418.400000
14669 10039 16117 1 149.00000 418.400000
14670 10040 14850 1 149.00000 418.400000
14671 10041 15872 1 149.00000 418.400000
14672 10042 15567 1 149.00000 418.400000
14672 10043 16017 1 149.00000 418.400000
14674 10044 16060 1 149.00000 418.400000
14674 10045 15593 1 149.00000 418.400000
19093 10046 21109 1 149.00000 418.400000
19093 10047 20593 1 149.00000 418.400000
14675 10048 14859 1 149.00000 418.400000
14676 10049 19801 1 149.00000 418.400000
14676 10050 15308 1 149.00000 418.400000
15076 10051 20629 1 149.00000 418.400000
12875 10052 16186 1 149.00000 418.400000
14678 10053 17389 1 149.00000 418.400000
14679 10054 14841 1 149.00000 418.400000
12859 10055 14780 1 149.00000 418.400000
14681 10056 16197 1 149.00000 418.400000
14682 10057 15931 1 149.00000 418.400000
14682 10058 15604 1 149.00000 418.400000
14684 10059 16259 1 149.00000 418.400000
14684 10060 15490 1 149.00000 418.400000
14684 10061 15780 1 149.00000 418.400000
15205 10062 16103 1 149.00000 418.400000
13658 10063 21649 1 149.00000 418.400000
14686 10064 15796 1 149.00000 418.400000
14688 10065 16050 1 149.00000 418.400000
14688 10066 15457 1 149.00000 418.400000
14689 10067 15700 1 149.00000 418.400000
15137 10068 24082 1 149.00000 418.400000
16745 10069 24082 1 149.00000 418.400000
14693 10070 15821 1 149.00000 418.400000
14694 10071 14773 1 149.00000 418.400000
14695 10072 15023 1 149.00000 418.400000
14695 10073 15869 1 149.00000 418.400000
14696 10074 15624 1 149.00000 418.400000
12767 10075 16000 1 149.00000 418.400000
14697 10076 20965 1 149.00000 418.400000
14698 10077 16015 1 149.00000 418.400000
14698 10078 16064 1 149.00000 418.400000
14698 10079 16098 1 149.00000 418.400000
21025 10080 24214 1 149.00000 418.400000
15198 10081 23305 1 149.00000 418.400000
14257 10082 17473 1 149.00000 418.400000
22813 10083 24298 1 149.00000 418.400000
15603 10084 23821 1 149.00000 418.400000
15820 10085 24085 1 149.00000 418.400000
20449 10086 24085 1 149.00000 418.400000
14703 10087 21901 1 149.00000 418.400000
14704 10088 14837 1 149.00000 418.400000
14705 10089 15504 1 149.00000 418.400000
14706 10090 14940 1 149.00000 418.400000
14708 10091 15762 1 149.00000 418.400000
11534 10092 14708 1 149.00000 418.400000
14709 10093 16164 1 149.00000 418.400000
14709 10094 14748 1 149.00000 418.400000
14710 10095 15879 1 149.00000 418.400000
14710 10096 15904 1 149.00000 418.400000
14711 10097 14920 1 149.00000 418.400000
14716 10098 16002 1 149.00000 418.400000
14716 10099 15360 1 149.00000 418.400000
14716 10100 15404 1 149.00000 418.400000
14717 10101 16170 1 149.00000 418.400000
14718 10102 16127 1 149.00000 418.400000
14718 10103 16086 1 149.00000 418.400000
18445 10104 24091 1 149.00000 418.400000
15393 10105 22957 1 149.00000 418.400000
14721 10106 16152 1 149.00000 418.400000
14722 10107 16124 1 149.00000 418.400000
14723 10108 15333 1 149.00000 418.400000
14723 10109 15699 1 149.00000 418.400000
14724 10110 14743 1 149.00000 418.400000
14724 10111 15311 1 149.00000 418.400000
14725 10112 14823 1 149.00000 418.400000
14725 10113 15636 1 149.00000 418.400000
14726 10114 14745 1 149.00000 418.400000
14727 10115 16160 1 149.00000 418.400000
14727 10116 14776 1 149.00000 418.400000
14728 10117 16013 1 149.00000 418.400000
14728 10118 14744 1 149.00000 418.400000
13745 10119 15840 1 149.00000 418.400000
14730 10120 14769 1 149.00000 418.400000
15167 10121 21397 1 149.00000 418.400000
14732 10122 15285 1 149.00000 418.400000
14733 10123 15227 1 149.00000 418.400000
20329 10124 23401 1 149.00000 418.400000
14735 10125 14977 1 149.00000 418.400000
14735 10126 15288 1 149.00000 418.400000
14736 10127 16079 1 149.00000 418.400000
14737 10128 15645 1 149.00000 418.400000
14739 10129 14776 1 149.00000 418.400000
14739 10130 15643 1 149.00000 418.400000
14740 10131 15170 1 149.00000 418.400000
14741 10132 15289 1 149.00000 418.400000
14741 10133 14876 1 149.00000 418.400000
13869 10134 14741 1 149.00000 418.400000
14741 10135 14892 1 149.00000 418.400000
14742 10136 15737 1 149.00000 418.400000
14743 10137 14864 1 149.00000 418.400000
14744 10138 15538 1 149.00000 418.400000
14746 10139 20965 1 149.00000 418.400000
16689 10140 24094 1 149.00000 418.400000
15621 10141 22717 1 149.00000 418.400000
14749 10142 15166 1 149.00000 418.400000
15786 10143 24457 1 149.00000 418.400000
15776 10144 22105 1 149.00000 418.400000
14750 10145 15464 1 149.00000 418.400000
14750 10146 19201 1 149.00000 418.400000
14750 10147 15160 1 149.00000 418.400000
20149 10148 23533 1 149.00000 418.400000
20149 10149 21757 1 149.00000 418.400000
15047 10150 15545 1 149.00000 418.400000
14752 10151 15545 1 149.00000 418.400000
14753 10152 16227 1 149.00000 418.400000
14755 10153 14962 1 149.00000 418.400000
14755 10154 15313 1 149.00000 418.400000
14756 10155 15218 1 149.00000 418.400000
12541 10156 16139 1 149.00000 418.400000
14757 10157 16249 1 149.00000 418.400000
14758 10158 19105 1 149.00000 418.400000
14759 10159 20449 1 149.00000 418.400000
14760 10160 15875 1 149.00000 418.400000
14762 10161 15402 1 149.00000 418.400000
14762 10162 14901 1 149.00000 418.400000
14763 10163 15745 1 149.00000 418.400000
14763 10164 14927 1 149.00000 418.400000
17557 10165 24097 1 149.00000 418.400000
14765 10166 15055 1 149.00000 418.400000
14766 10167 14973 1 149.00000 418.400000
14767 10168 16241 1 149.00000 418.400000
14767 10169 15742 1 149.00000 418.400000
14768 10170 15936 1 149.00000 418.400000
14769 10171 15076 1 149.00000 418.400000
14770 10172 16031 1 149.00000 418.400000
14770 10173 15117 1 149.00000 418.400000
14771 10174 16245 1 149.00000 418.400000
14772 10175 15234 1 149.00000 418.400000
14772 10176 14869 1 149.00000 418.400000
14773 10177 15773 1 149.00000 418.400000
14774 10178 15454 1 149.00000 418.400000
14774 10179 15234 1 149.00000 418.400000
14774 10180 16242 1 149.00000 418.400000
14776 10181 14939 1 149.00000 418.400000
14776 10182 15781 1 149.00000 418.400000
14777 10183 16241 1 149.00000 418.400000
14777 10184 15489 1 149.00000 418.400000
15800 10185 24100 1 149.00000 418.400000
14778 10186 15227 1 149.00000 418.400000
14779 10187 15731 1 149.00000 418.400000
14779 10188 15159 1 149.00000 418.400000
14780 10189 15389 1 149.00000 418.400000
14781 10190 15852 1 149.00000 418.400000
14781 10191 15945 1 149.00000 418.400000
14782 10192 15449 1 149.00000 418.400000
13294 10193 14782 1 149.00000 418.400000
14783 10194 15900 1 149.00000 418.400000
15900 10195 23722 1 149.00000 418.400000
14784 10196 16256 1 149.00000 418.400000
14784 10197 14804 1 149.00000 418.400000
14785 10198 15954 1 149.00000 418.400000
15795 10199 21097 1 149.00000 418.400000
14786 10200 15394 1 149.00000 418.400000
14787 10201 14929 1 149.00000 418.400000
14787 10202 16272 1 149.00000 418.400000
14788 10203 14944 1 149.00000 418.400000
14789 10204 15713 1 149.00000 418.400000
14790 10205 15651 1 149.00000 418.400000
11843 10206 14792 1 149.00000 418.400000
14792 10207 15047 1 149.00000 418.400000
14792 10208 15759 1 149.00000 418.400000
14793 10209 15472 1 149.00000 418.400000
14793 10210 15821 1 149.00000 418.400000
14794 10211 15536 1 149.00000 418.400000
14794 10212 15477 1 149.00000 418.400000
24106 10213 24214 1 149.00000 418.400000
14795 10214 14953 1 149.00000 418.400000
14795 10215 16141 1 149.00000 418.400000
14796 10216 15913 1 149.00000 418.400000
14797 10217 15604 1 149.00000 418.400000
14798 10218 15279 1 149.00000 418.400000
14798 10219 15613 1 149.00000 418.400000
14799 10220 15024 1 149.00000 418.400000
14799 10221 22909 1 149.00000 418.400000
14799 10222 21673 1 149.00000 418.400000
14800 10223 15633 1 149.00000 418.400000
14801 10224 15355 1 149.00000 418.400000
14802 10225 16053 1 149.00000 418.400000
14802 10226 16252 1 149.00000 418.400000
14802 10227 15851 1 149.00000 418.400000
14803 10228 15918 1 149.00000 418.400000
14804 10229 16274 1 149.00000 418.400000
15832 10230 24109 1 149.00000 418.400000
14805 10231 15405 1 149.00000 418.400000
14806 10232 14963 1 149.00000 418.400000
14806 10233 15105 1 149.00000 418.400000
14807 10234 16162 1 149.00000 418.400000
14807 10235 15981 1 149.00000 418.400000
14808 10236 15792 1 149.00000 418.400000
14808 10237 15365 1 149.00000 418.400000
14810 10238 23881 1 149.00000 418.400000
14810 10239 23620 1 149.00000 418.400000
14811 10240 15503 1 149.00000 418.400000
14811 10241 15483 1 149.00000 418.400000
14812 10242 15623 1 149.00000 418.400000
14812 10243 15095 1 149.00000 418.400000
14813 10244 16275 1 149.00000 418.400000
14815 10245 16163 1 149.00000 418.400000
14816 10246 15240 1 149.00000 418.400000
14817 10247 15293 1 149.00000 418.400000
13388 10248 14818 1 149.00000 418.400000
14818 10249 15957 1 149.00000 418.400000
14819 10250 14959 1 149.00000 418.400000
14820 10251 15146 1 149.00000 418.400000
14820 10252 15095 1 149.00000 418.400000
14821 10253 14888 1 149.00000 418.400000
14821 10254 14943 1 149.00000 418.400000
14823 10255 16228 1 149.00000 418.400000
14824 10256 16254 1 149.00000 418.400000
14824 10257 15147 1 149.00000 418.400000
14826 10258 16240 1 149.00000 418.400000
14451 10259 15398 1 149.00000 418.400000
14828 10260 15751 1 149.00000 418.400000
14828 10261 16091 1 149.00000 418.400000
14829 10262 15119 1 149.00000 418.400000
14830 10263 14949 1 149.00000 418.400000
14830 10264 16026 1 149.00000 418.400000
14831 10265 14904 1 149.00000 418.400000
14542 10266 14832 1 149.00000 418.400000
14832 10267 15448 1 149.00000 418.400000
14833 10268 15418 1 149.00000 418.400000
14833 10269 15555 1 149.00000 418.400000
14835 10270 18445 1 149.00000 418.400000
14835 10271 14965 1 149.00000 418.400000
13761 10272 16167 1 149.00000 418.400000
14836 10273 15831 1 149.00000 418.400000
14839 10274 16239 1 149.00000 418.400000
11307 10275 15723 1 149.00000 418.400000
15182 10276 22465 1 149.00000 418.400000
14841 10277 15576 1 149.00000 418.400000
14841 10278 14977 1 149.00000 418.400000
14842 10279 15893 1 149.00000 418.400000
14842 10280 16250 1 149.00000 418.400000
14843 10281 14884 1 149.00000 418.400000
14845 10282 15540 1 149.00000 418.400000
14845 10283 14889 1 149.00000 418.400000
14846 10284 16043 1 149.00000 418.400000
12422 10285 15936 1 149.00000 418.400000
14848 10286 19777 1 149.00000 418.400000
14850 10287 16157 1 149.00000 418.400000
14851 10288 15970 1 149.00000 418.400000
14852 10289 15048 1 149.00000 418.400000
11774 10290 12800 1 149.00000 418.400000
14853 10291 14978 1 149.00000 418.400000
14856 10292 16270 1 149.00000 418.400000
14857 10293 14932 1 149.00000 418.400000
14857 10294 15930 1 149.00000 418.400000
14858 10295 15099 1 149.00000 418.400000
13785 10296 14859 1 149.00000 418.400000
14864 10297 16277 1 149.00000 418.400000
14864 10298 16250 1 149.00000 418.400000
14866 10299 16070 1 149.00000 418.400000
14870 10300 15463 1 149.00000 418.400000
14870 10301 15749 1 149.00000 418.400000
15279 10302 15463 1 149.00000 418.400000
14871 10303 15820 1 149.00000 418.400000
14872 10304 15088 1 149.00000 418.400000
14873 10305 15766 1 149.00000 418.400000
15034 10306 15840 1 149.00000 418.400000
15034 10307 16353 1 149.00000 418.400000
14875 10308 15798 1 149.00000 418.400000
14876 10309 16250 1 149.00000 418.400000
14876 10310 15893 1 149.00000 418.400000
14877 10311 14972 1 149.00000 418.400000
14877 10312 23197 1 149.00000 418.400000
14878 10313 15815 1 149.00000 418.400000
15118 10314 17781 1 149.00000 418.400000
14060 10315 14879 1 149.00000 418.400000
14879 10316 15120 1 149.00000 418.400000
14880 10317 21337 1 149.00000 418.400000
14882 10318 15767 1 149.00000 418.400000
14882 10319 15753 1 149.00000 418.400000
14882 10320 15598 1 149.00000 418.400000
14883 10321 15508 1 149.00000 418.400000
14883 10322 15280 1 149.00000 418.400000
14884 10323 15151 1 149.00000 418.400000
14887 10324 15392 1 149.00000 418.400000
14888 10325 15272 1 149.00000 418.400000
14888 10326 15323 1 149.00000 418.400000
14889 10327 15348 1 149.00000 418.400000
14890 10328 15195 1 149.00000 418.400000
20737 10329 24262 1 149.00000 418.400000
15962 10330 17137 1 149.00000 418.400000
14891 10331 15056 1 149.00000 418.400000
12124 10332 14891 1 149.00000 418.400000
14893 10333 15676 1 149.00000 418.400000
14894 10334 15571 1 149.00000 418.400000
14894 10335 14945 1 149.00000 418.400000
14896 10336 15208 1 149.00000 418.400000
14897 10337 15590 1 149.00000 418.400000
14897 10338 15747 1 149.00000 418.400000
15438 10339 15859 1 149.00000 418.400000
14899 10340 15438 1 149.00000 418.400000
14900 10341 15285 1 149.00000 418.400000
14901 10342 15168 1 149.00000 418.400000
14901 10343 15819 1 149.00000 418.400000
14902 10344 16278 1 149.00000 418.400000
14902 10345 14980 1 149.00000 418.400000
14903 10346 15757 1 149.00000 418.400000
14904 10347 16199 1 149.00000 418.400000
14905 10348 15614 1 149.00000 418.400000
14906 10349 15475 1 149.00000 418.400000
14907 10350 16255 1 149.00000 418.400000
14909 10351 16091 1 149.00000 418.400000
14909 10352 15248 1 149.00000 418.400000
14909 10353 16166 1 149.00000 418.400000
14910 10354 15862 1 149.00000 418.400000
14911 10355 16367 1 149.00000 418.400000
20809 10356 22513 1 149.00000 418.400000
15847 10357 20449 1 149.00000 418.400000
14914 10358 14970 1 149.00000 418.400000
14914 10359 16106 1 149.00000 418.400000
14916 10360 16268 1 149.00000 418.400000
14916 10361 15177 1 149.00000 418.400000
14916 10362 15324 1 149.00000 418.400000
14917 10363 16068 1 149.00000 418.400000
14917 10364 15754 1 149.00000 418.400000
14917 10365 15642 1 149.00000 418.400000
14918 10366 15951 1 149.00000 418.400000
14918 10367 15658 1 149.00000 418.400000
14919 10368 16178 1 149.00000 418.400000
14919 10369 15242 1 149.00000 418.400000
13634 10370 14920 1 149.00000 418.400000
14920 10371 16151 1 149.00000 418.400000
14921 10372 15750 1 149.00000 418.400000
14921 10373 15074 1 149.00000 418.400000
14921 10374 16200 1 149.00000 418.400000
14921 10375 16175 1 149.00000 418.400000
14924 10376 15558 1 149.00000 418.400000
14925 10377 16101 1 149.00000 418.400000
14926 10378 15837 1 149.00000 418.400000
14926 10379 15872 1 149.00000 418.400000
14926 10380 15100 1 149.00000 418.400000
14927 10381 15478 1 149.00000 418.400000
14927 10382 15148 1 149.00000 418.400000
14928 10383 15013 1 149.00000 418.400000
14929 10384 15229 1 149.00000 418.400000
14930 10385 24262 1 149.00000 418.400000
14930 10386 16104 1 149.00000 418.400000
14931 10387 15806 1 149.00000 418.400000
14931 10388 15642 1 149.00000 418.400000
14937 10389 15839 1 149.00000 418.400000
14937 10390 15497 1 149.00000 418.400000
14941 10391 16242 1 149.00000 418.400000
14942 10392 15431 1 149.00000 418.400000
14942 10393 15945 1 149.00000 418.400000
14942 10394 16030 1 149.00000 418.400000
14944 10395 15667 1 149.00000 418.400000
14947 10396 15290 1 149.00000 418.400000
16521 10397 17879 1 149.00000 418.400000
14948 10398 15069 1 149.00000 418.400000
14950 10399 15366 1 149.00000 418.400000
14951 10400 15384 1 149.00000 418.400000
13287 10401 15855 1 149.00000 418.400000
14953 10402 16274 1 149.00000 418.400000
14954 10403 15524 1 149.00000 418.400000
14954 10404 15396 1 149.00000 418.400000
14955 10405 15443 1 149.00000 418.400000
13812 10406 14955 1 149.00000 418.400000
13809 10407 15029 1 149.00000 418.400000
14957 10408 14967 1 149.00000 418.400000
14958 10409 18589 1 149.00000 418.400000
14959 10410 14962 1 149.00000 418.400000
14960 10411 15889 1 149.00000 418.400000
14961 10412 15281 1 149.00000 418.400000
19105 10413 24127 1 149.00000 418.400000
13433 10414 24127 1 149.00000 418.400000
14962 10415 15944 1 149.00000 418.400000
14964 10416 15512 1 149.00000 418.400000
14964 10417 15214 1 149.00000 418.400000
14965 10418 15243 1 149.00000 418.400000
14967 10419 16087 1 149.00000 418.400000
14967 10420 16070 1 149.00000 418.400000
14968 10421 14988 1 149.00000 418.400000
11491 10422 15838 1 149.00000 418.400000
14972 10423 15253 1 149.00000 418.400000
14974 10424 15937 1 149.00000 418.400000
14975 10425 24202 1 149.00000 418.400000
14976 10426 15566 1 149.00000 418.400000
14978 10427 15703 1 149.00000 418.400000
14979 10428 15044 1 149.00000 418.400000
14979 10429 15882 1 149.00000 418.400000
14980 10430 15153 1 149.00000 418.400000
14980 10431 15230 1 149.00000 418.400000
14981 10432 15165 1 149.00000 418.400000
14985 10433 16451 1 149.00000 418.400000
14987 10434 15695 1 149.00000 418.400000
15731 10435 22405 1 149.00000 418.400000
16120 10436 22405 1 149.00000 418.400000
14991 10437 22633 1 149.00000 418.400000
14991 10438 15011 1 149.00000 418.400000
14991 10439 22261 1 149.00000 418.400000
14991 10440 18229 1 149.00000 418.400000
19849 10441 20677 1 149.00000 418.400000
15764 10442 19849 1 149.00000 418.400000
14992 10443 15583 1 149.00000 418.400000
14993 10444 15676 1 149.00000 418.400000
14993 10445 15952 1 149.00000 418.400000
14994 10446 16136 1 149.00000 418.400000
14995 10447 15071 1 149.00000 418.400000
14996 10448 15390 1 149.00000 418.400000
14997 10449 16230 1 149.00000 418.400000
14997 10450 24184 1 149.00000 418.400000
14998 10451 15052 1 149.00000 418.400000
14998 10452 15788 1 149.00000 418.400000
14998 10453 15561 1 149.00000 418.400000
15000 10454 16148 1 149.00000 418.400000
15000 10455 16159 1 149.00000 418.400000
15002 10456 15604 1 149.00000 418.400000
15003 10457 19129 1 149.00000 418.400000
15004 10458 15763 1 149.00000 418.400000
14087 10459 15484 1 149.00000 418.400000
15005 10460 15685 1 149.00000 418.400000
15368 10461 19873 1 149.00000 418.400000
15776 10462 19873 1 149.00000 418.400000
17977 10463 21853 1 149.00000 418.400000
15007 10464 15498 1 149.00000 418.400000
15009 10465 16215 1 149.00000 418.400000
15010 10466 15733 1 149.00000 418.400000
14448 10467 15010 1 149.00000 418.400000
12165 10468 15011 1 149.00000 418.400000
15012 10469 15701 1 149.00000 418.400000
15014 10470 15453 1 149.00000 418.400000
12760 10471 15015 1 149.00000 418.400000
15015 10472 15397 1 149.00000 418.400000
15016 10473 15803 1 149.00000 418.400000
15016 10474 15353 1 149.00000 418.400000
15612 10475 24133 1 149.00000 418.400000
15017 10476 15213 1 149.00000 418.400000
15019 10477 15194 1 149.00000 418.400000
15020 10478 15131 1 149.00000 418.400000
15021 10479 15411 1 149.00000 418.400000
13148 10480 15025 1 149.00000 418.400000
15025 10481 15910 1 149.00000 418.400000
15026 10482 15077 1 149.00000 418.400000
15027 10483 15769 1 149.00000 418.400000
15028 10484 15726 1 149.00000 418.400000
15029 10485 15171 1 149.00000 418.400000
15030 10486 15099 1 149.00000 418.400000
15032 10487 15569 1 149.00000 418.400000
15032 10488 15562 1 149.00000 418.400000
13788 10489 15033 1 149.00000 418.400000
15033 10490 15765 1 149.00000 418.400000
15430 10491 23209 1 149.00000 418.400000
12259 10492 21757 1 149.00000 418.400000
15036 10493 15584 1 149.00000 418.400000
15039 10494 15656 1 149.00000 418.400000
15040 10495 15797 1 149.00000 418.400000
11810 10496 15041 1 149.00000 418.400000
15042 10497 16184 1 149.00000 418.400000
15043 10498 15769 1 149.00000 418.400000
15044 10499 15415 1 149.00000 418.400000
15045 10500 19777 1 149.00000 418.400000
15047 10501 15856 1 149.00000 418.400000
15051 10502 15948 1 149.00000 418.400000
15051 10503 16153 1 149.00000 418.400000
15053 10504 15578 1 149.00000 418.400000
15054 10505 15863 1 149.00000 418.400000
15054 10506 15111 1 149.00000 418.400000
15055 10507 15280 1 149.00000 418.400000
15130 10508 24142 1 149.00000 418.400000
15058 10509 16114 1 149.00000 418.400000
15058 10510 16107 1 149.00000 418.400000
15058 10511 15237 1 149.00000 418.400000
15060 10512 16018 1 149.00000 418.400000
13433 10513 21265 1 149.00000 418.400000
21265 10514 22489 1 149.00000 418.400000
15063 10515 24151 1 149.00000 418.400000
15063 10516 15090 1 149.00000 418.400000
15064 10517 15328 1 149.00000 418.400000
12387 10518 13092 1 149.00000 418.400000
15066 10519 15148 1 149.00000 418.400000
15067 10520 15773 1 149.00000 418.400000
14424 10521 15385 1 149.00000 418.400000
15069 10522 15196 1 149.00000 418.400000
15069 10523 15733 1 149.00000 418.400000
15071 10524 15870 1 149.00000 418.400000
15071 10525 16042 1 149.00000 418.400000
15072 10526 15156 1 149.00000 418.400000
15074 10527 15611 1 149.00000 418.400000
15075 10528 15891 1 149.00000 418.400000
15077 10529 15829 1 149.00000 418.400000
15078 10530 15129 1 149.00000 418.400000
12421 10531 15683 1 149.00000 418.400000
12421 10532 15550 1 149.00000 418.400000
15081 10533 15965 1 149.00000 418.400000
15082 10534 15481 1 149.00000 418.400000
15082 10535 15719 1 149.00000 418.400000
15083 10536 19621 1 149.00000 418.400000
15084 10537 16106 1 149.00000 418.400000
15085 10538 15188 1 149.00000 418.400000
15086 10539 15478 1 149.00000 418.400000
15087 10540 15190 1 149.00000 418.400000
15088 10541 15395 1 149.00000 418.400000
15088 10542 16040 1 149.00000 418.400000
15089 10543 15732 1 149.00000 418.400000
15090 10544 19693 1 149.00000 418.400000
15091 10545 17389 1 149.00000 418.400000
15092 10546 15413 1 149.00000 418.400000
15092 10547 15374 1 149.00000 418.400000
15093 10548 16153 1 149.00000 418.400000
15368 10549 16479 1 149.00000 418.400000
15094 10550 17333 1 149.00000 418.400000
15094 10551 23281 1 149.00000 418.400000
15094 10552 15178 1 149.00000 418.400000
15096 10553 15834 1 149.00000 418.400000
15097 10554 16213 1 149.00000 418.400000
15097 10555 24304 1 149.00000 418.400000
15098 10556 16049 1 149.00000 418.400000
15098 10557 16003 1 149.00000 418.400000
15098 10558 15108 1 149.00000 418.400000
15100 10559 16211 1 149.00000 418.400000
20017 10560 21961 1 149.00000 418.400000
15868 10561 21961 1 149.00000 418.400000
15101 10562 15963 1 149.00000 418.400000
15101 10563 15725 1 149.00000 418.400000
15101 10564 15446 1 149.00000 418.400000
15102 10565 15630 1 149.00000 418.400000
15103 10566 15134 1 149.00000 418.400000
15104 10567 17893 1 149.00000 418.400000
15105 10568 15918 1 149.00000 418.400000
15106 10569 18757 1 149.00000 418.400000
15106 10570 24235 1 149.00000 418.400000
15107 10571 15257 1 149.00000 418.400000
15965 10572 22921 1 149.00000 418.400000
15110 10573 16256 1 149.00000 418.400000
15111 10574 15948 1 149.00000 418.400000
15112 10575 15496 1 149.00000 418.400000
12635 10576 15112 1 149.00000 418.400000
15112 10577 15996 1 149.00000 418.400000
15114 10578 15355 1 149.00000 418.400000
15116 10579 16133 1 149.00000 418.400000
15116 10580 15972 1 149.00000 418.400000
15542 10581 24148 1 149.00000 418.400000
20773 10582 24148 1 149.00000 418.400000
15118 10583 15948 1 149.00000 418.400000
15119 10584 15349 1 149.00000 418.400000
15119 10585 15145 1 149.00000 418.400000
15120 10586 15193 1 149.00000 418.400000
16493 10587 21577 1 149.00000 418.400000
15121 10588 15418 1 149.00000 418.400000
15124 10589 15969 1 149.00000 418.400000
15125 10590 16205 1 149.00000 418.400000
15143 10591 24151 1 149.00000 418.400000
15652 10592 24154 1 149.00000 418.400000
16177 10593 24154 1 149.00000 418.400000
15127 10594 15839 1 149.00000 418.400000
15128 10595 15911 1 149.00000 418.400000
15129 10596 16152 1 149.00000 418.400000
15130 10597 15541 1 149.00000 418.400000
15131 10598 15295 1 149.00000 418.400000
15132 10599 15706 1 149.00000 418.400000
15133 10600 16203 1 149.00000 418.400000
15133 10601 16109 1 149.00000 418.400000
15136 10602 16189 1 149.00000 418.400000
15137 10603 15975 1 149.00000 418.400000
15137 10604 15186 1 149.00000 418.400000
15138 10605 15381 1 149.00000 418.400000
15139 10606 16176 1 149.00000 418.400000
15764 10607 24157 1 149.00000 418.400000
15142 10608 15878 1 149.00000 418.400000
15142 10609 16029 1 149.00000 418.400000
15143 10610 16037 1 149.00000 418.400000
15143 10611 20389 1 149.00000 418.400000
15145 10612 15698 1 149.00000 418.400000
15145 10613 15819 1 149.00000 418.400000
15147 10614 16201 1 149.00000 418.400000
15149 10615 15985 1 149.00000 418.400000
15151 10616 15307 1 149.00000 418.400000
15152 10617 15531 1 149.00000 418.400000
15152 10618 15310 1 149.00000 418.400000
15153 10619 15823 1 149.00000 418.400000
15157 10620 15938 1 149.00000 418.400000
15157 10621 15322 1 149.00000 418.400000
15158 10622 15684 1 149.00000 418.400000
15159 10623 16012 1 149.00000 418.400000
15159 10624 16096 1 149.00000 418.400000
13180 10625 15383 1 149.00000 418.400000
16229 10626 23005 1 149.00000 418.400000
15160 10627 15168 1 149.00000 418.400000
12604 10628 16013 1 149.00000 418.400000
15161 10629 15557 1 149.00000 418.400000
15161 10630 15853 1 149.00000 418.400000
15162 10631 15628 1 149.00000 418.400000
15165 10632 16263 1 149.00000 418.400000
15166 10633 15296 1 149.00000 418.400000
15168 10634 15304 1 149.00000 418.400000
15170 10635 15696 1 149.00000 418.400000
15170 10636 15582 1 149.00000 418.400000
15172 10637 15978 1 149.00000 418.400000
13818 10638 15173 1 149.00000 418.400000
15174 10639 16101 1 149.00000 418.400000
15174 10640 15619 1 149.00000 418.400000
15174 10641 15680 1 149.00000 418.400000
15174 10642 15866 1 149.00000 418.400000
15175 10643 15682 1 149.00000 418.400000
15176 10644 15502 1 149.00000 418.400000
15179 10645 15831 1 149.00000 418.400000
15179 10646 15966 1 149.00000 418.400000
15159 10647 15180 1 149.00000 418.400000
15181 10648 15199 1 149.00000 418.400000
15182 10649 22441 1 149.00000 418.400000
15183 10650 15993 1 149.00000 418.400000
15184 10651 16065 1 149.00000 418.400000
15184 10652 15269 1 149.00000 418.400000
15185 10653 15921 1 149.00000 418.400000
15186 10654 15283 1 149.00000 418.400000
15187 10655 15770 1 149.00000 418.400000
15187 10656 15697 1 149.00000 418.400000
15187 10657 15569 1 149.00000 418.400000
15188 10658 15456 1 149.00000 418.400000
15191 10659 15246 1 149.00000 418.400000
15192 10660 15833 1 149.00000 418.400000
14926 10661 15192 1 149.00000 418.400000
15193 10662 15684 1 149.00000 418.400000
15194 10663 15685 1 149.00000 418.400000
15195 10664 15265 1 149.00000 418.400000
15196 10665 15321 1 149.00000 418.400000
15198 10666 15309 1 149.00000 418.400000
15200 10667 15396 1 149.00000 418.400000
15202 10668 15215 1 149.00000 418.400000
15204 10669 15671 1 149.00000 418.400000
15204 10670 21901 1 149.00000 418.400000
15204 10671 19813 1 149.00000 418.400000
14685 10672 15205 1 149.00000 418.400000
15210 10673 15521 1 149.00000 418.400000
15211 10674 24196 1 149.00000 418.400000
15212 10675 15293 1 149.00000 418.400000
11921 10676 15661 1 149.00000 418.400000
13925 10677 15214 1 149.00000 418.400000
21409 10678 21949 1 149.00000 418.400000
15791 10679 21949 1 149.00000 418.400000
14442 10680 16098 1 149.00000 418.400000
12635 10681 15585 1 149.00000 418.400000
15218 10682 15873 1 149.00000 418.400000
15219 10683 15595 1 149.00000 418.400000
15220 10684 16020 1 149.00000 418.400000
15222 10685 15795 1 149.00000 418.400000
15222 10686 20953 1 149.00000 418.400000
15223 10687 15549 1 149.00000 418.400000
15224 10688 16233 1 149.00000 418.400000
15224 10689 16219 1 149.00000 418.400000
15224 10690 15337 1 149.00000 418.400000
15225 10691 15919 1 149.00000 418.400000
15226 10692 15673 1 149.00000 418.400000
15226 10693 15778 1 149.00000 418.400000
15659 10694 18589 1 149.00000 418.400000
15228 10695 16194 1 149.00000 418.400000
15229 10696 15922 1 149.00000 418.400000
15233 10697 15746 1 149.00000 418.400000
14772 10698 15484 1 149.00000 418.400000
15236 10699 16110 1 149.00000 418.400000
15236 10700 15862 1 149.00000 418.400000
15238 10701 15439 1 149.00000 418.400000
15240 10702 15825 1 149.00000 418.400000
15246 10703 16178 1 149.00000 418.400000
13274 10704 15247 1 149.00000 418.400000
15249 10705 21037 1 149.00000 418.400000
15250 10706 16040 1 149.00000 418.400000
15251 10707 16035 1 149.00000 418.400000
15251 10708 15450 1 149.00000 418.400000
15252 10709 16118 1 149.00000 418.400000
15254 10710 15444 1 149.00000 418.400000
15254 10711 24286 1 149.00000 418.400000
15256 10712 15559 1 149.00000 418.400000
15256 10713 16206 1 149.00000 418.400000
15258 10714 15539 1 149.00000 418.400000
15258 10715 15594 1 149.00000 418.400000
15260 10716 15993 1 149.00000 418.400000
15261 10717 15883 1 149.00000 418.400000
15262 10718 15495 1 149.00000 418.400000
15264 10719 15940 1 149.00000 418.400000
15265 10720 15414 1 149.00000 418.400000
15266 10721 15815 1 149.00000 418.400000
15271 10722 15854 1 149.00000 418.400000
15271 10723 15322 1 149.00000 418.400000
15275 10724 15676 1 149.00000 418.400000
15275 10725 15395 1 149.00000 418.400000
15277 10726 15932 1 149.00000 418.400000
13847 10727 15690 1 149.00000 418.400000
15278 10728 15799 1 149.00000 418.400000
15281 10729 15637 1 149.00000 418.400000
15283 10730 15752 1 149.00000 418.400000
15284 10731 15445 1 149.00000 418.400000
15285 10732 15573 1 149.00000 418.400000
15286 10733 16136 1 149.00000 418.400000
15286 10734 16084 1 149.00000 418.400000
15287 10735 15707 1 149.00000 418.400000
15653 10736 20905 1 149.00000 418.400000
14236 10737 15576 1 149.00000 418.400000
15288 10738 15688 1 149.00000 418.400000
15289 10739 15744 1 149.00000 418.400000
15292 10740 15358 1 149.00000 418.400000
15010 10741 15293 1 149.00000 418.400000
15294 10742 16176 1 149.00000 418.400000
15294 10743 16216 1 149.00000 418.400000
15639 10744 20425 1 149.00000 418.400000
15296 10745 15825 1 149.00000 418.400000
15296 10746 15815 1 149.00000 418.400000
20941 10747 24172 1 149.00000 418.400000
15297 10748 16250 1 149.00000 418.400000
15298 10749 15484 1 149.00000 418.400000
15299 10750 15319 1 149.00000 418.400000
15302 10751 15775 1 149.00000 418.400000
15305 10752 15354 1 149.00000 418.400000
15306 10753 15477 1 149.00000 418.400000
15306 10754 15986 1 149.00000 418.400000
14141 10755 15312 1 149.00000 418.400000
18541 10756 22129 1 149.00000 418.400000
16209 10757 18541 1 149.00000 418.400000
15727 10758 22573 1 149.00000 418.400000
15315 10759 24232 1 149.00000 418.400000
15318 10760 15838 1 149.00000 418.400000
15319 10761 15811 1 149.00000 418.400000
15320 10762 15959 1 149.00000 418.400000
15322 10763 15651 1 149.00000 418.400000
15326 10764 20341 1 149.00000 418.400000
15326 10765 15341 1 149.00000 418.400000
15326 10766 24271 1 149.00000 418.400000
15327 10767 15329 1 149.00000 418.400000
15328 10768 15480 1 149.00000 418.400000
15329 10769 15654 1 149.00000 418.400000
15331 10770 15770 1 149.00000 418.400000
15332 10771 15479 1 149.00000 418.400000
15333 10772 15507 1 149.00000 418.400000
15334 10773 15443 1 149.00000 418.400000
15335 10774 15482 1 149.00000 418.400000
15336 10775 15675 1 149.00000 418.400000
15337 10776 16072 1 149.00000 418.400000
15337 10777 15810 1 149.00000 418.400000
15339 10778 15829 1 149.00000 418.400000
15340 10779 15524 1 149.00000 418.400000
15340 10780 15667 1 149.00000 418.400000
15344 10781 16192 1 149.00000 418.400000
15348 10782 15356 1 149.00000 418.400000
15348 10783 15362 1 149.00000 418.400000
15351 10784 16815 1 149.00000 418.400000
15354 10785 15428 1 149.00000 418.400000
15354 10786 21637 1 149.00000 418.400000
15356 10787 15433 1 149.00000 418.400000
15360 10788 16052 1 149.00000 418.400000
15362 10789 16157 1 149.00000 418.400000
19981 10790 24187 1 149.00000 418.400000
15363 10791 15970 1 149.00000 418.400000
15364 10792 16149 1 149.00000 418.400000
13661 10793 15364 1 149.00000 418.400000
15365 10794 15824 1 149.00000 418.400000
15958 10795 24190 1 149.00000 418.400000
15366 10796 16114 1 149.00000 418.400000
15367 10797 15543 1 149.00000 418.400000
15367 10798 15879 1 149.00000 418.400000
15369 10799 15828 1 149.00000 418.400000
15372 10800 16274 1 149.00000 418.400000
15372 10801 19741 1 149.00000 418.400000
19393 10802 24205 1 149.00000 418.400000
15377 10803 15861 1 149.00000 418.400000
16237 10804 24193 1 149.00000 418.400000
15378 10805 16198 1 149.00000 418.400000
15380 10806 15638 1 149.00000 418.400000
15383 10807 15899 1 149.00000 418.400000
15384 10808 16095 1 149.00000 418.400000
15385 10809 16112 1 149.00000 418.400000
15385 10810 15803 1 149.00000 418.400000
15388 10811 15607 1 149.00000 418.400000
15390 10812 16141 1 149.00000 418.400000
15393 10813 22945 1 149.00000 418.400000
20677 10814 21481 1 149.00000 418.400000
15398 10815 16451 1 149.00000 418.400000
15399 10816 15691 1 149.00000 418.400000
15401 10817 16204 1 149.00000 418.400000
15401 10818 15959 1 149.00000 418.400000
14410 10819 15403 1 149.00000 418.400000
15405 10820 15703 1 149.00000 418.400000
15409 10821 24482 1 149.00000 418.400000
14974 10822 15409 1 149.00000 418.400000
15410 10823 15942 1 149.00000 418.400000
15410 10824 15639 1 149.00000 418.400000
15411 10825 15624 1 149.00000 418.400000
15412 10826 15818 1 149.00000 418.400000
16145 10827 22945 1 149.00000 418.400000
15486 10828 24205 1 149.00000 418.400000
15421 10829 22537 1 149.00000 418.400000
15424 10830 16222 1 149.00000 418.400000
15427 10831 15776 1 149.00000 418.400000
15428 10832 15537 1 149.00000 418.400000
15430 10833 16025 1 149.00000 418.400000
15432 10834 15574 1 149.00000 418.400000
11663 10835 15432 1 149.00000 418.400000
15434 10836 22405 1 149.00000 418.400000
15434 10837 16212 1 149.00000 418.400000
15435 10838 15687 1 149.00000 418.400000
13294 10839 15449 1 149.00000 418.400000
15898 10840 21505 1 149.00000 418.400000
19945 10841 21505 1 149.00000 418.400000
15437 10842 15630 1 149.00000 418.400000
12760 10843 15437 1 149.00000 418.400000
15440 10844 16035 1 149.00000 418.400000
15441 10845 15984 1 149.00000 418.400000
15441 10846 15916 1 149.00000 418.400000
15442 10847 16130 1 149.00000 418.400000
15444 10848 16137 1 149.00000 418.400000
15447 10849 16194 1 149.00000 418.400000
15452 10850 16108 1 149.00000 418.400000
15452 10851 15938 1 149.00000 418.400000
15456 10852 24477 1 149.00000 418.400000
15457 10853 16219 1 149.00000 418.400000
15458 10854 15519 1 149.00000 418.400000
15459 10855 15523 1 149.00000 418.400000
15461 10856 15777 1 149.00000 418.400000
15461 10857 15612 1 149.00000 418.400000
15889 10858 24211 1 149.00000 418.400000
15462 10859 15465 1 149.00000 418.400000
15463 10860 15613 1 149.00000 418.400000
15463 10861 15887 1 149.00000 418.400000
13881 10862 15466 1 149.00000 418.400000
15468 10863 15585 1 149.00000 418.400000
13341 10864 18517 1 149.00000 418.400000
15472 10865 15517 1 149.00000 418.400000
19297 10866 19909 1 149.00000 418.400000
15530 10867 18517 1 149.00000 418.400000
15515 10868 16437 1 149.00000 418.400000
16246 10869 16437 1 149.00000 418.400000
15475 10870 15516 1 149.00000 418.400000
15481 10871 15762 1 149.00000 418.400000
13443 10872 16070 1 149.00000 418.400000
16216 10873 22633 1 149.00000 418.400000
15666 10874 22633 1 149.00000 418.400000
15482 10875 15592 1 149.00000 418.400000
15483 10876 15549 1 149.00000 418.400000
15298 10877 15968 1 149.00000 418.400000
15488 10878 15589 1 149.00000 418.400000
15488 10879 15788 1 149.00000 418.400000
15489 10880 16200 1 149.00000 418.400000
15490 10881 16248 1 149.00000 418.400000
15493 10882 15501 1 149.00000 418.400000
15494 10883 15783 1 149.00000 418.400000
13889 10884 15535 1 149.00000 418.400000
15494 10885 15806 1 149.00000 418.400000
15495 10886 16247 1 149.00000 418.400000
16133 10887 19645 1 149.00000 418.400000
15502 10888 16182 1 149.00000 418.400000
15503 10889 15533 1 149.00000 418.400000
15504 10890 15785 1 149.00000 418.400000
16051 10891 23257 1 149.00000 418.400000
15506 10892 16030 1 149.00000 418.400000
15506 10893 15773 1 149.00000 418.400000
15506 10894 16202 1 149.00000 418.400000
15507 10895 15887 1 149.00000 418.400000
15510 10896 16252 1 149.00000 418.400000
15514 10897 16127 1 149.00000 418.400000
15516 10898 15946 1 149.00000 418.400000
15516 10899 16147 1 149.00000 418.400000
15517 10900 15615 1 149.00000 418.400000
15458 10901 15967 1 149.00000 418.400000
18757 10902 22933 1 149.00000 418.400000
15523 10903 15548 1 149.00000 418.400000
15525 10904 15897 1 149.00000 418.400000
15525 10905 15735 1 149.00000 418.400000
15526 10906 19837 1 149.00000 418.400000
15527 10907 16104 1 149.00000 418.400000
15528 10908 15561 1 149.00000 418.400000
15529 10909 16140 1 149.00000 418.400000
15529 10910 16032 1 149.00000 418.400000
19489 10911 22261 1 149.00000 418.400000
15530 10912 16230 1 149.00000 418.400000
11988 10913 15915 1 149.00000 418.400000
15533 10914 16066 1 149.00000 418.400000
15536 10915 15755 1 149.00000 418.400000
15537 10916 20101 1 149.00000 418.400000
11794 10917 15538 1 149.00000 418.400000
15541 10918 15902 1 149.00000 418.400000
15547 10919 15655 1 149.00000 418.400000
14161 10920 15915 1 149.00000 418.400000
15551 10921 16123 1 149.00000 418.400000
15551 10922 15987 1 149.00000 418.400000
17753 10923 21037 1 149.00000 418.400000
15555 10924 15811 1 149.00000 418.400000
15558 10925 15728 1 149.00000 418.400000
15720 10926 24235 1 149.00000 418.400000
15561 10927 15740 1 149.00000 418.400000
15563 10928 15720 1 149.00000 418.400000
15563 10929 16090 1 149.00000 418.400000
15564 10930 15744 1 149.00000 418.400000
15571 10931 16174 1 149.00000 418.400000
15575 10932 16041 1 149.00000 418.400000
15578 10933 15876 1 149.00000 418.400000
15580 10934 16261 1 149.00000 418.400000
15585 10935 15903 1 149.00000 418.400000
15594 10936 15750 1 149.00000 418.400000
15596 10937 15932 1 149.00000 418.400000
15597 10938 16138 1 149.00000 418.400000
15600 10939 16251 1 149.00000 418.400000
15640 10940 19405 1 149.00000 418.400000
15601 10941 15939 1 149.00000 418.400000
16034 10942 19129 1 149.00000 418.400000
15605 10943 15878 1 149.00000 418.400000
13719 10944 15605 1 149.00000 418.400000
15607 10945 24292 1 149.00000 418.400000
15608 10946 15802 1 149.00000 418.400000
15609 10947 16264 1 149.00000 418.400000
15610 10948 15878 1 149.00000 418.400000
19801 10949 24472 1 149.00000 418.400000
15730 10950 19801 1 149.00000 418.400000
15613 10951 15678 1 149.00000 418.400000
15613 10952 15746 1 149.00000 418.400000
15614 10953 16189 1 149.00000 418.400000
15617 10954 16017 1 149.00000 418.400000
15618 10955 15726 1 149.00000 418.400000
15620 10956 15668 1 149.00000 418.400000
17599 10957 22537 1 149.00000 418.400000
15629 10958 15801 1 149.00000 418.400000
15631 10959 16199 1 149.00000 418.400000
15631 10960 16090 1 149.00000 418.400000
15631 10961 16252 1 149.00000 418.400000
15632 10962 15721 1 149.00000 418.400000
15634 10963 15811 1 149.00000 418.400000
15657 10964 21409 1 149.00000 418.400000
16093 10965 21409 1 149.00000 418.400000
15635 10966 15755 1 149.00000 418.400000
15637 10967 15988 1 149.00000 418.400000
15638 10968 15885 1 149.00000 418.400000
15639 10969 15729 1 149.00000 418.400000
15641 10970 15692 1 149.00000 418.400000
15642 10971 15795 1 149.00000 418.400000
15643 10972 16055 1 149.00000 418.400000
15646 10973 16097 1 149.00000 418.400000
11723 10974 16000 1 149.00000 418.400000
15649 10975 15887 1 149.00000 418.400000
15652 10976 15869 1 149.00000 418.400000
15655 10977 15705 1 149.00000 418.400000
15655 10978 16114 1 149.00000 418.400000
15656 10979 15959 1 149.00000 418.400000
15741 10980 15994 1 149.00000 418.400000
15657 10981 15994 1 149.00000 418.400000
15658 10982 15674 1 149.00000 418.400000
15662 10983 15969 1 149.00000 418.400000
15662 10984 16088 1 149.00000 418.400000
15662 10985 16174 1 149.00000 418.400000
15663 10986 16047 1 149.00000 418.400000
15667 10987 15901 1 149.00000 418.400000
16216 10988 19813 1 149.00000 418.400000
15668 10989 16138 1 149.00000 418.400000
15672 10990 15979 1 149.00000 418.400000
16177 10991 18457 1 149.00000 418.400000
15685 10992 16018 1 149.00000 418.400000
15688 10993 16168 1 149.00000 418.400000
15690 10994 15897 1 149.00000 418.400000
20929 10995 21109 1 149.00000 418.400000
15700 10996 16276 1 149.00000 418.400000
15701 10997 15988 1 149.00000 418.400000
11627 10998 15707 1 149.00000 418.400000
15709 10999 15779 1 149.00000 418.400000
15709 11000 15894 1 149.00000 418.400000
15710 11001 16039 1 149.00000 418.400000
15710 11002 15968 1 149.00000 418.400000
15712 11003 15816 1 149.00000 418.400000
15712 11004 15787 1 149.00000 418.400000
15719 11005 16071 1 149.00000 418.400000
13966 11006 15851 1 149.00000 418.400000
16158 11007 24247 1 149.00000 418.400000
15842 11008 24247 1 149.00000 418.400000
20389 11009 24253 1 149.00000 418.400000
15733 11010 16089 1 149.00000 418.400000
15736 11011 15979 1 149.00000 418.400000
15739 11012 15774 1 149.00000 418.400000
15740 11013 16082 1 149.00000 418.400000
15741 11014 18853 1 149.00000 418.400000
15742 11015 16256 1 149.00000 418.400000
15743 11016 16219 1 149.00000 418.400000
15564 11017 16128 1 149.00000 418.400000
15745 11018 16111 1 149.00000 418.400000
15745 11019 16245 1 149.00000 418.400000
15752 11020 15839 1 149.00000 418.400000
15839 11021 16022 1 149.00000 418.400000
14783 11022 15753 1 149.00000 418.400000
15754 11023 15838 1 149.00000 418.400000
15760 11024 16210 1 149.00000 418.400000
15760 11025 15923 1 149.00000 418.400000
15761 11026 16047 1 149.00000 418.400000
15765 11027 16035 1 149.00000 418.400000
15767 11028 15891 1 149.00000 418.400000
15768 11029 21541 1 149.00000 418.400000
15768 11030 16043 1 149.00000 418.400000
15769 11031 16130 1 149.00000 418.400000
18313 11032 21673 1 149.00000 418.400000
15774 11033 16259 1 149.00000 418.400000
15782 11034 15982 1 149.00000 418.400000
15788 11035 15902 1 149.00000 418.400000
15790 11036 16266 1 149.00000 418.400000
15792 11037 15850 1 149.00000 418.400000
15794 11038 15849 1 149.00000 418.400000
15801 11039 16209 1 149.00000 418.400000
12920 11040 15808 1 149.00000 418.400000
15812 11041 15995 1 149.00000 418.400000
15812 11042 16028 1 149.00000 418.400000
15817 11043 21337 1 149.00000 418.400000
16843 11044 24286 1 149.00000 418.400000
15820 11045 15923 1 149.00000 418.400000
15823 11046 16027 1 149.00000 418.400000
15823 11047 16206 1 149.00000 418.400000
15825 11048 16144 1 149.00000 418.400000
15826 11049 19525 1 149.00000 418.400000
15828 11050 15877 1 149.00000 418.400000
15834 11051 15942 1 149.00000 418.400000
15840 11052 24253 1 149.00000 418.400000
15841 11053 16098 1 149.00000 418.400000
14395 11054 16101 1 149.00000 418.400000
14395 11055 16083 1 149.00000 418.400000
15845 11056 16192 1 149.00000 418.400000
15853 11057 15961 1 149.00000 418.400000
15855 11058 16201 1 149.00000 418.400000
15857 11059 16239 1 149.00000 418.400000
15858 11060 16046 1 149.00000 418.400000
15858 11061 15947 1 149.00000 418.400000
11966 11062 20329 1 149.00000 418.400000
15860 11063 16052 1 149.00000 418.400000
15865 11064 16186 1 149.00000 418.400000
15867 11065 16109 1 149.00000 418.400000
15869 11066 16138 1 149.00000 418.400000
12530 11067 16040 1 149.00000 418.400000
15872 11068 16234 1 149.00000 418.400000
16057 11069 19693 1 149.00000 418.400000
15874 11070 16067 1 149.00000 418.400000
15875 11071 15905 1 149.00000 418.400000
15736 11072 15876 1 149.00000 418.400000
15876 11073 16015 1 149.00000 418.400000
15881 11074 16006 1 149.00000 418.400000
15889 11075 18877 1 149.00000 418.400000
15888 11076 16084 1 149.00000 418.400000
15895 11077 15909 1 149.00000 418.400000
11883 11078 20593 1 149.00000 418.400000
15905 11079 16154 1 149.00000 418.400000
15905 11080 15912 1 149.00000 418.400000
15907 11081 24271 1 149.00000 418.400000
15911 11082 16112 1 149.00000 418.400000
15917 11083 16018 1 149.00000 418.400000
15925 11084 16155 1 149.00000 418.400000
15927 11085 16171 1 149.00000 418.400000
15931 11086 15972 1 149.00000 418.400000
15933 11087 16094 1 149.00000 418.400000
15938 11088 16244 1 149.00000 418.400000
15940 11089 16172 1 149.00000 418.400000
12549 11090 15940 1 149.00000 418.400000
15941 11091 16184 1 149.00000 418.400000
16041 11092 17795 1 149.00000 418.400000
15949 11093 16058 1 149.00000 418.400000
15963 11094 16196 1 149.00000 418.400000
15971 11095 16133 1 149.00000 418.400000
15977 11096 16148 1 149.00000 418.400000
16133 11097 24274 1 149.00000 418.400000
15990 11098 16022 1 149.00000 418.400000
16001 11099 16259 1 149.00000 418.400000
16002 11100 16137 1 149.00000 418.400000
16004 11101 16183 1 149.00000 418.400000
16004 11102 16064 1 149.00000 418.400000
16005 11103 16036 1 149.00000 418.400000
16006 11104 16024 1 149.00000 418.400000
16009 11105 16246 1 149.00000 418.400000
16010 11106 16045 1 149.00000 418.400000
16012 11107 16020 1 149.00000 418.400000
16019 11108 16206 1 149.00000 418.400000
16026 11109 16079 1 149.00000 418.400000
16028 11110 19285 1 149.00000 418.400000
16035 11111 16214 1 149.00000 418.400000
16040 11112 16236 1 149.00000 418.400000
16041 11113 16136 1 149.00000 418.400000
16042 11114 16132 1 149.00000 418.400000
16050 11115 16101 1 149.00000 418.400000
16218 11116 19525 1 149.00000 418.400000
16054 11117 16223 1 149.00000 418.400000
16059 11118 16241 1 149.00000 418.400000
16063 11119 16275 1 149.00000 418.400000
16064 11120 16170 1 149.00000 418.400000
16067 11121 16195 1 149.00000 418.400000
16083 11122 16166 1 149.00000 418.400000
16086 11123 16150 1 149.00000 418.400000
16100 11124 16183 1 149.00000 418.400000
16176 11125 20857 1 149.00000 418.400000
16120 11126 16164 1 149.00000 418.400000
16124 11127 16142 1 149.00000 418.400000
16126 11128 16217 1 149.00000 418.400000
16128 11129 16162 1 149.00000 418.400000
16135 11130 16155 1 149.00000 418.400000
16145 11131 16253 1 149.00000 418.400000
16157 11132 16253 1 149.00000 418.400000
16175 11133 16232 1 149.00000 418.400000
16186 11134 16261 1 149.00000 418.400000
16188 11135 16245 1 149.00000 418.400000
16215 11136 16272 1 149.00000 418.400000
16220 11137 20725 1 149.00000 418.400000
20029 11138 23707 1 149.00000 418.400000
21313 11139 23863 1 149.00000 418.400000
19045 11140 20785 1 149.00000 418.400000
21289 11141 24277 1 149.00000 418.400000
23941 11142 24115 1 149.00000 418.400000
18553 11143 24058 1 149.00000 418.400000
20173 11144 23377 1 149.00000 418.400000
22645 11145 24088 1 149.00000 418.400000
22681 11146 22705 1 149.00000 418.400000
18361 11147 24025 1 149.00000 418.400000
18745 11148 20329 1 149.00000 418.400000
18661 11149 20725 1 149.00000 418.400000
21493 11150 23872 1 149.00000 418.400000
13254 11151 24226 1 149.00000 418.400000
11417 11152 19237 1 149.00000 418.400000
11643 11153 19273 1 149.00000 418.400000
14333 11154 20317 1 149.00000 418.400000
15527 11155 20737 1 149.00000 418.400000
15499 11156 24274 1 149.00000 418.400000
14511 11157 22177 1 149.00000 418.400000
12942 11158 21181 1 149.00000 418.400000
11282 11159 24124 1 149.00000 418.400000
15640 11160 24199 1 149.00000 418.400000
11595 11161 12667 1 149.00000 418.400000
14678 11162 22201 1 149.00000 418.400000
15652 11163 19033 1 149.00000 418.400000
12533 11164 24136 1 149.00000 418.400000
12230 11165 24013 1 149.00000 418.400000
12323 11166 23125 1 149.00000 418.400000
11493 11167 23623 1 149.00000 418.400000
15622 11168 24289 1 149.00000 418.400000
14719 11169 23908 1 149.00000 418.400000
11405 11170 23149 1 149.00000 418.400000
12609 11171 23449 1 149.00000 418.400000
15975 11172 24229 1 149.00000 418.400000
14597 11173 21205 1 149.00000 418.400000
14017 11174 21421 1 149.00000 418.400000
14132 11175 15238 1 149.00000 418.400000
13900 11176 23755 1 149.00000 418.400000
14859 11177 24016 1 149.00000 418.400000
12897 11178 23317 1 149.00000 418.400000
14506 11179 21277 1 149.00000 418.400000
16231 11180 18433 1 149.00000 418.400000
11321 11181 23929 1 149.00000 418.400000
12667 11182 22141 1 149.00000 418.400000
13253 11183 21673 1 149.00000 418.400000
16007 11184 23647 1 149.00000 418.400000
14191 11185 20545 1 149.00000 418.400000
14458 11186 23221 1 149.00000 418.400000
12582 11187 21913 1 149.00000 418.400000
13671 11188 16095 1 149.00000 418.400000
15062 11189 19453 1 149.00000 418.400000
15222 11190 24121 1 149.00000 418.400000
11254 11191 23950 1 149.00000 418.400000
14628 11192 23812 1 149.00000 418.400000
12877 11193 18337 1 149.00000 418.400000
11975 11194 23185 1 149.00000 418.400000
14065 11195 23365 1 149.00000 418.400000
11780 11196 20245 1 149.00000 418.400000
14579 11197 18925 1 149.00000 418.400000
16263 11198 21301 1 149.00000 418.400000
14524 11199 23569 1 149.00000 418.400000
15346 11200 24163 1 149.00000 418.400000
13657 11201 19585 1 149.00000 418.400000
15104 11202 24001 1 149.00000 418.400000
12501 11203 24073 1 149.00000 418.400000
12833 11204 22033 1 149.00000 418.400000
12791 11205 22537 1 149.00000 418.400000
15409 11206 20185 1 149.00000 418.400000
11986 11207 23485 1 149.00000 418.400000
14831 11208 23797 1 149.00000 418.400000
13266 11209 21637 1 149.00000 418.400000
13575 11210 21061 1 149.00000 418.400000
11266 11211 23473 1 149.00000 418.400000
13639 11212 20701 1 149.00000 418.400000
16151 11213 22813 1 149.00000 418.400000
12978 11214 19969 1 149.00000 418.400000
16000 11215 22549 1 149.00000 418.400000
16095 11216 18493 1 149.00000 418.400000
14663 11217 23089 1 149.00000 418.400000
15816 11218 23815 1 149.00000 418.400000
15238 11219 22225 1 149.00000 418.400000
16017 11220 18865 1 149.00000 418.400000
15316 11221 22993 1 149.00000 418.400000
15034 11222 19933 1 149.00000 418.400000
13988 11223 20353 1 149.00000 418.400000
12257 11224 24010 1 149.00000 418.400000
14047 11225 23932 1 149.00000 418.400000
14201 11226 18937 1 149.00000 418.400000
13210 11227 14617 1 149.00000 418.400000
16072 11228 22825 1 149.00000 418.400000
15647 11229 22465 1 149.00000 418.400000
11367 11230 24022 1 149.00000 418.400000
12708 11231 21649 1 149.00000 418.400000
13916 11232 23842 1 149.00000 418.400000
13254 11233 23848 1 149.00000 418.400000
14810 11234 24295 1 149.00000 418.400000
15294 11235 20569 1 149.00000 418.400000
13053 11236 23389 1 149.00000 418.400000
15730 11237 23983 1 149.00000 418.400000
15154 11238 20197 1 149.00000 418.400000
13210 11239 20365 1 149.00000 418.400000
13744 11240 21841 1 149.00000 418.400000
13993 11241 19429 1 149.00000 418.400000
14244 11242 21073 1 149.00000 418.400000
15359 11243 18589 1 149.00000 418.400000
16229 11244 23869 1 149.00000 418.400000
14331 11245 24190 1 149.00000 418.400000
15562 11246 22837 1 149.00000 418.400000
14804 11247 21697 1 149.00000 418.400000
13702 11248 23737 1 149.00000 418.400000
13166 11249 20749 1 149.00000 418.400000
13479 11250 19405 1 149.00000 418.400000
15249 11251 23677 1 149.00000 418.400000
1 11252 2 1 109.50000 418.400000
1 11252 3 1 109.50000 418.400000
1 11252 4 1 109.50000 418.400000
2 11252 3 1 109.50000 418.400000
2 11252 4 1 109.50000 418.400000
3 11252 4 1 109.50000 418.400000
7 11253 8 1 109.50000 418.400000
7 11253 9 1 109.50000 418.400000
7 11253 10 1 109.50000 418.400000
8 11253 9 1 109.50000 418.400000
8 11253 10 1 109.50000 418.400000
9 11253 10 1 109.50000 418.400000
11 11254 12 1 109.50000 418.400000
11 11254 13 1 109.50000 418.400000
11 11254 11191 1 109.50000 418.400000
12 11254 13 1 109.50000 418.400000
12 11254 11191 1 109.50000 418.400000
13 11254 11191 1 109.50000 418.400000
14 11255 15 1 109.50000 418.400000
14 11255 16 1 109.50000 418.400000
14 11255 17 1 109.50000 418.400000
15 11255 16 1 109.50000 418.400000
15 11255 17 1 109.50000 418.400000
16 11255 17 1 109.50000 418.400000
22 11256 23 1 109.50000 418.400000
22 11256 24 1 109.50000 418.400000
22 11256 25 1 109.50000 418.400000
23 11256 24 1 109.50000 418.400000
23 11256 25 1 109.50000 418.400000
24 11256 25 1 109.50000 418.400000
26 11257 27 1 109.50000 418.400000
26 11257 28 1 109.50000 418.400000
26 11257 29 1 109.50000 418.400000
27 11257 28 1 109.50000 418.400000
27 11257 29 1 109.50000 418.400000
28 11257 29 1 109.50000 418.400000
33 11258 34 1 109.50000 418.400000
33 11258 35 1 109.50000 418.400000
33 11258 36 1 109.50000 418.400000
34 11258 35 1 109.50000 418.400000
34 11258 36 1 109.50000 418.400000
35 11258 36 1 109.50000 418.400000
37 11259 38 1 109.50000 418.400000
37 11259 39 1 109.50000 418.400000
37 11259 40 1 109.50000 418.400000
38 11259 39 1 109.50000 418.400000
38 11259 40 1 109.50000 418.400000
39 11259 40 1 109.50000 418.400000
41 11260 42 1 109.50000 418.400000
41 11260 43 1 109.50000 418.400000
41 11260 44 1 109.50000 418.400000
42 11260 43 1 109.50000 418.400000
42 11260 44 1 109.50000 418.400000
43 11260 44 1 109.50000 418.400000
45 11261 46 1 109.50000 418.400000
45 11261 47 1 109.50000 418.400000
45 11261 48 1 109.50000 418.400000
46 11261 47 1 109.50000 418.400000
46 11261 48 1 109.50000 418.400000
47 11261 48 1 109.50000 418.400000
49 11262 50 1 109.50000 418.400000
49 11262 51 1 109.50000 418.400000
49 11262 52 1 109.50000 418.400000
50 11262 51 1 109.50000 418.400000
50 11262 52 1 109.50000 418.400000
51 11262 52 1 109.50000 418.400000
53 11263 54 1 109.50000 418.400000
53 11263 55 1 109.50000 418.400000
53 11263 56 1 109.50000 418.400000
54 11263 55 1 109.50000 418.400000
54 11263 56 1 109.50000 418.400000
55 11263 56 1 109.50000 418.400000
57 11264 58 1 109.50000 418.400000
57 11264 59 1 109.50000 418.400000
57 11264 60 1 109.50000 418.400000
58 11264 59 1 109.50000 418.400000
58 11264 60 1 109.50000 418.400000
59 11264 60 1 109.50000 418.400000
61 11265 62 1 109.50000 418.400000
61 11265 63 1 109.50000 418.400000
61 11265 64 1 109.50000 418.400000
62 11265 63 1 109.50000 418.400000
62 11265 64 1 109.50000 418.400000
63 11265 64 1 109.50000 418.400000
65 11266 66 1 109.50000 418.400000
65 11266 67 1 109.50000 418.400000
65 11266 11211 1 109.50000 418.400000
66 11266 67 1 109.50000 418.400000
66 11266 11211 1 109.50000 418.400000
67 11266 11211 1 109.50000 418.400000
70 11267 71 1 109.50000 418.400000
70 11267 72 1 109.50000 418.400000
70 11267 73 1 109.50000 418.400000
71 11267 72 1 109.50000 418.400000
71 11267 73 1 109.50000 418.400000
72 11267 73 1 109.50000 418.400000
74 11268 75 1 109.50000 418.400000
74 11268 76 1 109.50000 418.400000
74 11268 77 1 109.50000 418.400000
75 11268 76 1 109.50000 418.400000
75 11268 77 1 109.50000 418.400000
76 11268 77 1 109.50000 418.400000
78 11269 79 1 109.50000 418.400000
78 11269 80 1 109.50000 418.400000
78 11269 81 1 109.50000 418.400000
79 11269 80 1 109.50000 418.400000
79 11269 81 1 109.50000 418.400000
80 11269 81 1 109.50000 418.400000
82 11270 83 1 109.50000 418.400000
82 11270 84 1 109.50000 418.400000
82 11270 85 1 109.50000 418.400000
83 11270 84 1 109.50000 418.400000
83 11270 85 1 109.50000 418.400000
84 11270 85 1 109.50000 418.400000
87 11271 88 1 109.50000 418.400000
87 11271 89 1 109.50000 418.400000
87 11271 5157 1 109.50000 418.400000
88 11271 89 1 109.50000 418.400000
88 11271 5157 1 109.50000 418.400000
89 11271 5157 1 109.50000 418.400000
93 11272 94 1 109.50000 418.400000
93 11272 95 1 109.50000 418.400000
93 11272 96 1 109.50000 418.400000
94 11272 95 1 109.50000 418.400000
94 11272 96 1 109.50000 418.400000
95 11272 96 1 109.50000 418.400000
97 11273 98 1 109.50000 418.400000
97 11273 99 1 109.50000 418.400000
97 11273 100 1 109.50000 418.400000
98 11273 99 1 109.50000 418.400000
98 11273 100 1 109.50000 418.400000
99 11273 100 1 109.50000 418.400000
101 11274 102 1 109.50000 418.400000
101 11274 103 1 109.50000 418.400000
101 11274 104 1 109.50000 418.400000
102 11274 103 1 109.50000 418.400000
102 11274 104 1 109.50000 418.400000
103 11274 104 1 109.50000 418.400000
105 11275 106 1 109.50000 418.400000
105 11275 107 1 109.50000 418.400000
105 11275 108 1 109.50000 418.400000
106 11275 107 1 109.50000 418.400000
106 11275 108 1 109.50000 418.400000
107 11275 108 1 109.50000 418.400000
109 11276 110 1 109.50000 418.400000
109 11276 111 1 109.50000 418.400000
109 11276 112 1 109.50000 418.400000
110 11276 111 1 109.50000 418.400000
110 11276 112 1 109.50000 418.400000
111 11276 112 1 109.50000 418.400000
113 11277 114 1 109.50000 418.400000
113 11277 115 1 109.50000 418.400000
113 11277 116 1 109.50000 418.400000
114 11277 115 1 109.50000 418.400000
114 11277 116 1 109.50000 418.400000
115 11277 116 1 109.50000 418.400000
117 11278 118 1 109.50000 418.400000
117 11278 119 1 109.50000 418.400000
117 11278 120 1 109.50000 418.400000
118 11278 119 1 109.50000 418.400000
118 11278 120 1 109.50000 418.400000
119 11278 120 1 109.50000 418.400000
126 11279 127 1 109.50000 418.400000
126 11279 128 1 109.50000 418.400000
126 11279 129 1 109.50000 418.400000
127 11279 128 1 109.50000 418.400000
127 11279 129 1 109.50000 418.400000
128 11279 129 1 109.50000 418.400000
130 11280 131 1 109.50000 418.400000
130 11280 132 1 109.50000 418.400000
130 11280 133 1 109.50000 418.400000
131 11280 132 1 109.50000 418.400000
131 11280 133 1 109.50000 418.400000
132 11280 133 1 109.50000 418.400000
127 11281 134 1 109.50000 418.400000
127 11281 135 1 109.50000 418.400000
127 11281 136 1 109.50000 418.400000
134 11281 135 1 109.50000 418.400000
134 11281 136 1 109.50000 418.400000
135 11281 136 1 109.50000 418.400000
137 11282 138 1 109.50000 418.400000
137 11282 139 1 109.50000 418.400000
137 11282 11159 1 109.50000 418.400000
138 11282 139 1 109.50000 418.400000
138 11282 11159 1 109.50000 418.400000
139 11282 11159 1 109.50000 418.400000
140 11283 141 1 109.50000 418.400000
140 11283 142 1 109.50000 418.400000
140 11283 143 1 109.50000 418.400000
141 11283 142 1 109.50000 418.400000
141 11283 143 1 109.50000 418.400000
142 11283 143 1 109.50000 418.400000
144 11284 145 1 109.50000 418.400000
144 11284 146 1 109.50000 418.400000
144 11284 147 1 109.50000 418.400000
145 11284 146 1 109.50000 418.400000
145 11284 147 1 109.50000 418.400000
146 11284 147 1 109.50000 418.400000
149 11285 150 1 109.50000 418.400000
149 11285 151 1 109.50000 418.400000
149 11285 3054 1 109.50000 418.400000
150 11285 151 1 109.50000 418.400000
150 11285 3054 1 109.50000 418.400000
151 11285 3054 1 109.50000 418.400000
152 11286 153 1 109.50000 418.400000
152 11286 154 1 109.50000 418.400000
152 11286 155 1 109.50000 418.400000
153 11286 154 1 109.50000 418.400000
153 11286 155 1 109.50000 418.400000
154 11286 155 1 109.50000 418.400000
14 11287 156 1 109.50000 418.400000
14 11287 157 1 109.50000 418.400000
14 11287 158 1 109.50000 418.400000
156 11287 157 1 109.50000 418.400000
156 11287 158 1 109.50000 418.400000
157 11287 158 1 109.50000 418.400000
160 11288 161 1 109.50000 418.400000
160 11288 162 1 109.50000 418.400000
160 11288 7368 1 109.50000 418.400000
161 11288 162 1 109.50000 418.400000
161 11288 7368 1 109.50000 418.400000
162 11288 7368 1 109.50000 418.400000
163 11289 164 1 109.50000 418.400000
163 11289 165 1 109.50000 418.400000
163 11289 166 1 109.50000 418.400000
164 11289 165 1 109.50000 418.400000
164 11289 166 1 109.50000 418.400000
165 11289 166 1 109.50000 418.400000
63 11290 167 1 109.50000 418.400000
63 11290 168 1 109.50000 418.400000
63 11290 169 1 109.50000 418.400000
167 11290 168 1 109.50000 418.400000
167 11290 169 1 109.50000 418.400000
168 11290 169 1 109.50000 418.400000
170 11291 171 1 109.50000 418.400000
170 11291 172 1 109.50000 418.400000
170 11291 173 1 109.50000 418.400000
171 11291 172 1 109.50000 418.400000
171 11291 173 1 109.50000 418.400000
172 11291 173 1 109.50000 418.400000
174 11292 175 1 109.50000 418.400000
174 11292 176 1 109.50000 418.400000
174 11292 177 1 109.50000 418.400000
175 11292 176 1 109.50000 418.400000
175 11292 177 1 109.50000 418.400000
176 11292 177 1 109.50000 418.400000
180 11293 181 1 109.50000 418.400000
180 11293 182 1 109.50000 418.400000
180 11293 183 1 109.50000 418.400000
181 11293 182 1 109.50000 418.400000
181 11293 183 1 109.50000 418.400000
182 11293 183 1 109.50000 418.400000
184 11294 185 1 109.50000 418.400000
184 11294 186 1 109.50000 418.400000
184 11294 187 1 109.50000 418.400000
185 11294 186 1 109.50000 418.400000
185 11294 187 1 109.50000 418.400000
186 11294 187 1 109.50000 418.400000
188 11295 189 1 109.50000 418.400000
188 11295 190 1 109.50000 418.400000
188 11295 191 1 109.50000 418.400000
189 11295 190 1 109.50000 418.400000
189 11295 191 1 109.50000 418.400000
190 11295 191 1 109.50000 418.400000
193 11296 194 1 109.50000 418.400000
193 11296 195 1 109.50000 418.400000
193 11296 196 1 109.50000 418.400000
194 11296 195 1 109.50000 418.400000
194 11296 196 1 109.50000 418.400000
195 11296 196 1 109.50000 418.400000
197 11297 198 1 109.50000 418.400000
197 11297 199 1 109.50000 418.400000
197 11297 200 1 109.50000 418.400000
198 11297 199 1 109.50000 418.400000
198 11297 200 1 109.50000 418.400000
199 11297 200 1 109.50000 418.400000
201 11298 202 1 109.50000 418.400000
201 11298 203 1 109.50000 418.400000
201 11298 8675 1 109.50000 418.400000
202 11298 203 1 109.50000 418.400000
202 11298 8675 1 109.50000 418.400000
203 11298 8675 1 109.50000 418.400000
206 11299 207 1 109.50000 418.400000
206 11299 208 1 109.50000 418.400000
206 11299 2442 1 109.50000 418.400000
207 11299 208 1 109.50000 418.400000
207 11299 2442 1 109.50000 418.400000
208 11299 2442 1 109.50000 418.400000
209 11300 210 1 109.50000 418.400000
209 11300 211 1 109.50000 418.400000
209 11300 212 1 109.50000 418.400000
210 11300 211 1 109.50000 418.400000
210 11300 212 1 109.50000 418.400000
211 11300 212 1 109.50000 418.400000
214 11301 215 1 109.50000 418.400000
214 11301 216 1 109.50000 418.400000
214 11301 1197 1 109.50000 418.400000
215 11301 216 1 109.50000 418.400000
215 11301 1197 1 109.50000 418.400000
216 11301 1197 1 109.50000 418.400000
217 11302 218 1 109.50000 418.400000
217 11302 219 1 109.50000 418.400000
217 11302 220 1 109.50000 418.400000
218 11302 219 1 109.50000 418.400000
218 11302 220 1 109.50000 418.400000
219 11302 220 1 109.50000 418.400000
224 11303 225 1 109.50000 418.400000
224 11303 226 1 109.50000 418.400000
224 11303 227 1 109.50000 418.400000
225 11303 226 1 109.50000 418.400000
225 11303 227 1 109.50000 418.400000
226 11303 227 1 109.50000 418.400000
228 11304 229 1 109.50000 418.400000
228 11304 230 1 109.50000 418.400000
228 11304 231 1 109.50000 418.400000
229 11304 230 1 109.50000 418.400000
229 11304 231 1 109.50000 418.400000
230 11304 231 1 109.50000 418.400000
237 11305 8525 1 109.50000 418.400000
237 11305 8526 1 109.50000 418.400000
237 11305 8527 1 109.50000 418.400000
8525 11305 8526 1 109.50000 418.400000
8525 11305 8527 1 109.50000 418.400000
8526 11305 8527 1 109.50000 418.400000
246 11306 247 1 109.50000 418.400000
246 11306 248 1 109.50000 418.400000
246 11306 249 1 109.50000 418.400000
247 11306 248 1 109.50000 418.400000
247 11306 249 1 109.50000 418.400000
248 11306 249 1 109.50000 418.400000
251 11307 252 1 109.50000 418.400000
251 11307 253 1 109.50000 418.400000
251 11307 10275 1 109.50000 418.400000
252 11307 253 1 109.50000 418.400000
252 11307 10275 1 109.50000 418.400000
253 11307 10275 1 109.50000 418.400000
256 11308 257 1 109.50000 418.400000
256 11308 258 1 109.50000 418.400000
256 11308 259 1 109.50000 418.400000
257 11308 258 1 109.50000 418.400000
257 11308 259 1 109.50000 418.400000
258 11308 259 1 109.50000 418.400000
260 11309 261 1 109.50000 418.400000
260 11309 262 1 109.50000 418.400000
260 11309 263 1 109.50000 418.400000
261 11309 262 1 109.50000 418.400000
261 11309 263 1 109.50000 418.400000
262 11309 263 1 109.50000 418.400000
264 11310 265 1 109.50000 418.400000
264 11310 266 1 109.50000 418.400000
264 11310 267 1 109.50000 418.400000
265 11310 266 1 109.50000 418.400000
265 11310 267 1 109.50000 418.400000
266 11310 267 1 109.50000 418.400000
268 11311 269 1 109.50000 418.400000
268 11311 270 1 109.50000 418.400000
268 11311 271 1 109.50000 418.400000
269 11311 270 1 109.50000 418.400000
269 11311 271 1 109.50000 418.400000
270 11311 271 1 109.50000 418.400000
275 11312 276 1 109.50000 418.400000
275 11312 277 1 109.50000 418.400000
275 11312 278 1 109.50000 418.400000
276 11312 277 1 109.50000 418.400000
276 11312 278 1 109.50000 418.400000
277 11312 278 1 109.50000 418.400000
279 11313 280 1 109.50000 418.400000
279 11313 281 1 109.50000 418.400000
279 11313 282 1 109.50000 418.400000
280 11313 281 1 109.50000 418.400000
280 11313 282 1 109.50000 418.400000
281 11313 282 1 109.50000 418.400000
286 11314 287 1 109.50000 418.400000
286 11314 288 1 109.50000 418.400000
286 11314 289 1 109.50000 418.400000
287 11314 288 1 109.50000 418.400000
287 11314 289 1 109.50000 418.400000
288 11314 289 1 109.50000 418.400000
290 11315 291 1 109.50000 418.400000
290 11315 292 1 109.50000 418.400000
290 11315 1212 1 109.50000 418.400000
291 11315 292 1 109.50000 418.400000
291 11315 1212 1 109.50000 418.400000
292 11315 1212 1 109.50000 418.400000
294 11316 295 1 109.50000 418.400000
294 11316 296 1 109.50000 418.400000
294 11316 9847 1 109.50000 418.400000
295 11316 296 1 109.50000 418.400000
295 11316 9847 1 109.50000 418.400000
296 11316 9847 1 109.50000 418.400000
298 11317 299 1 109.50000 418.400000
298 11317 300 1 109.50000 418.400000
298 11317 301 1 109.50000 418.400000
299 11317 300 1 109.50000 418.400000
299 11317 301 1 109.50000 418.400000
300 11317 301 1 109.50000 418.400000
302 11318 303 1 109.50000 418.400000
302 11318 304 1 109.50000 418.400000
302 11318 305 1 109.50000 418.400000
303 11318 304 1 109.50000 418.400000
303 11318 305 1 109.50000 418.400000
304 11318 305 1 109.50000 418.400000
306 11319 307 1 109.50000 418.400000
306 11319 308 1 109.50000 418.400000
306 11319 309 1 109.50000 418.400000
307 11319 308 1 109.50000 418.400000
307 11319 309 1 109.50000 418.400000
308 11319 309 1 109.50000 418.400000
310 11320 311 1 109.50000 418.400000
310 11320 312 1 109.50000 418.400000
310 11320 313 1 109.50000 418.400000
311 11320 312 1 109.50000 418.400000
311 11320 313 1 109.50000 418.400000
312 11320 313 1 109.50000 418.400000
263 11321 314 1 109.50000 418.400000
263 11321 315 1 109.50000 418.400000
263 11321 11181 1 109.50000 418.400000
314 11321 315 1 109.50000 418.400000
314 11321 11181 1 109.50000 418.400000
315 11321 11181 1 109.50000 418.400000
316 11322 317 1 109.50000 418.400000
316 11322 318 1 109.50000 418.400000
316 11322 319 1 109.50000 418.400000
317 11322 318 1 109.50000 418.400000
317 11322 319 1 109.50000 418.400000
318 11322 319 1 109.50000 418.400000
289 11323 321 1 109.50000 418.400000
289 11323 322 1 109.50000 418.400000
289 11323 323 1 109.50000 418.400000
321 11323 322 1 109.50000 418.400000
321 11323 323 1 109.50000 418.400000
322 11323 323 1 109.50000 418.400000
324 11324 325 1 109.50000 418.400000
324 11324 326 1 109.50000 418.400000
324 11324 327 1 109.50000 418.400000
325 11324 326 1 109.50000 418.400000
325 11324 327 1 109.50000 418.400000
326 11324 327 1 109.50000 418.400000
328 11325 329 1 109.50000 418.400000
328 11325 330 1 109.50000 418.400000
328 11325 331 1 109.50000 418.400000
329 11325 330 1 109.50000 418.400000
329 11325 331 1 109.50000 418.400000
330 11325 331 1 109.50000 418.400000
332 11326 333 1 109.50000 418.400000
332 11326 334 1 109.50000 418.400000
332 11326 335 1 109.50000 418.400000
333 11326 334 1 109.50000 418.400000
333 11326 335 1 109.50000 418.400000
334 11326 335 1 109.50000 418.400000
338 11327 770 1 109.50000 418.400000
338 11327 5300 1 109.50000 418.400000
338 11327 5799 1 109.50000 418.400000
770 11327 5300 1 109.50000 418.400000
770 11327 5799 1 109.50000 418.400000
5300 11327 5799 1 109.50000 418.400000
340 11328 341 1 109.50000 418.400000
340 11328 342 1 109.50000 418.400000
340 11328 343 1 109.50000 418.400000
341 11328 342 1 109.50000 418.400000
341 11328 343 1 109.50000 418.400000
342 11328 343 1 109.50000 418.400000
344 11329 345 1 109.50000 418.400000
344 11329 346 1 109.50000 418.400000
344 11329 347 1 109.50000 418.400000
345 11329 346 1 109.50000 418.400000
345 11329 347 1 109.50000 418.400000
346 11329 347 1 109.50000 418.400000
352 11330 353 1 109.50000 418.400000
352 11330 354 1 109.50000 418.400000
352 11330 355 1 109.50000 418.400000
353 11330 354 1 109.50000 418.400000
353 11330 355 1 109.50000 418.400000
354 11330 355 1 109.50000 418.400000
356 11331 357 1 109.50000 418.400000
356 11331 358 1 109.50000 418.400000
356 11331 359 1 109.50000 418.400000
357 11331 358 1 109.50000 418.400000
357 11331 359 1 109.50000 418.400000
358 11331 359 1 109.50000 418.400000
360 11332 361 1 109.50000 418.400000
360 11332 362 1 109.50000 418.400000
360 11332 363 1 109.50000 418.400000
361 11332 362 1 109.50000 418.400000
361 11332 363 1 109.50000 418.400000
362 11332 363 1 109.50000 418.400000
364 11333 365 1 109.50000 418.400000
364 11333 366 1 109.50000 418.400000
364 11333 367 1 109.50000 418.400000
365 11333 366 1 109.50000 418.400000
365 11333 367 1 109.50000 418.400000
366 11333 367 1 109.50000 418.400000
372 11334 374 1 109.50000 418.400000
372 11334 2432 1 109.50000 418.400000
372 11334 6266 1 109.50000 418.400000
374 11334 2432 1 109.50000 418.400000
374 11334 6266 1 109.50000 418.400000
2432 11334 6266 1 109.50000 418.400000
377 11335 378 1 109.50000 418.400000
377 11335 1946 1 109.50000 418.400000
377 11335 1948 1 109.50000 418.400000
378 11335 1946 1 109.50000 418.400000
378 11335 1948 1 109.50000 418.400000
1946 11335 1948 1 109.50000 418.400000
379 11336 380 1 109.50000 418.400000
379 11336 381 1 109.50000 418.400000
379 11336 382 1 109.50000 418.400000
380 11336 381 1 109.50000 418.400000
380 11336 382 1 109.50000 418.400000
381 11336 382 1 109.50000 418.400000
383 11337 384 1 109.50000 418.400000
383 11337 385 1 109.50000 418.400000
383 11337 386 1 109.50000 418.400000
384 11337 385 1 109.50000 418.400000
384 11337 386 1 109.50000 418.400000
385 11337 386 1 109.50000 418.400000
387 11338 388 1 109.50000 418.400000
387 11338 389 1 109.50000 418.400000
387 11338 390 1 109.50000 418.400000
388 11338 389 1 109.50000 418.400000
388 11338 390 1 109.50000 418.400000
389 11338 390 1 109.50000 418.400000
391 11339 392 1 109.50000 418.400000
391 11339 393 1 109.50000 418.400000
391 11339 394 1 109.50000 418.400000
392 11339 393 1 109.50000 418.400000
392 11339 394 1 109.50000 418.400000
393 11339 394 1 109.50000 418.400000
397 11340 399 1 109.50000 418.400000
397 11340 400 1 109.50000 418.400000
397 11340 4444 1 109.50000 418.400000
399 11340 400 1 109.50000 418.400000
399 11340 4444 1 109.50000 418.400000
400 11340 4444 1 109.50000 418.400000
401 11341 402 1 109.50000 418.400000
401 11341 403 1 109.50000 418.400000
401 11341 404 1 109.50000 418.400000
402 11341 403 1 109.50000 418.400000
402 11341 404 1 109.50000 418.400000
403 11341 404 1 109.50000 418.400000
405 11342 406 1 109.50000 418.400000
405 11342 408 1 109.50000 418.400000
405 11342 8729 1 109.50000 418.400000
406 11342 408 1 109.50000 418.400000
406 11342 8729 1 109.50000 418.400000
408 11342 8729 1 109.50000 418.400000
409 11343 410 1 109.50000 418.400000
409 11343 411 1 109.50000 418.400000
409 11343 412 1 109.50000 418.400000
410 11343 411 1 109.50000 418.400000
410 11343 412 1 109.50000 418.400000
411 11343 412 1 109.50000 418.400000
413 11344 414 1 109.50000 418.400000
413 11344 415 1 109.50000 418.400000
413 11344 416 1 109.50000 418.400000
414 11344 415 1 109.50000 418.400000
414 11344 416 1 109.50000 418.400000
415 11344 416 1 109.50000 418.400000
420 11345 421 1 109.50000 418.400000
420 11345 422 1 109.50000 418.400000
420 11345 423 1 109.50000 418.400000
421 11345 422 1 109.50000 418.400000
421 11345 423 1 109.50000 418.400000
422 11345 423 1 109.50000 418.400000
271 11346 424 1 109.50000 418.400000
271 11346 425 1 109.50000 418.400000
271 11346 426 1 109.50000 418.400000
424 11346 425 1 109.50000 418.400000
424 11346 426 1 109.50000 418.400000
425 11346 426 1 109.50000 418.400000
427 11347 428 1 109.50000 418.400000
427 11347 429 1 109.50000 418.400000
427 11347 430 1 109.50000 418.400000
428 11347 429 1 109.50000 418.400000
428 11347 430 1 109.50000 418.400000
429 11347 430 1 109.50000 418.400000
431 11348 432 1 109.50000 418.400000
431 11348 433 1 109.50000 418.400000
431 11348 434 1 109.50000 418.400000
432 11348 433 1 109.50000 418.400000
432 11348 434 1 109.50000 418.400000
433 11348 434 1 109.50000 418.400000
436 11349 437 1 109.50000 418.400000
436 11349 438 1 109.50000 418.400000
436 11349 2817 1 109.50000 418.400000
437 11349 438 1 109.50000 418.400000
437 11349 2817 1 109.50000 418.400000
438 11349 2817 1 109.50000 418.400000
441 11350 442 1 109.50000 418.400000
441 11350 443 1 109.50000 418.400000
441 11350 444 1 109.50000 418.400000
442 11350 443 1 109.50000 418.400000
442 11350 444 1 109.50000 418.400000
443 11350 444 1 109.50000 418.400000
445 11351 446 1 109.50000 418.400000
445 11351 447 1 109.50000 418.400000
445 11351 448 1 109.50000 418.400000
446 11351 447 1 109.50000 418.400000
446 11351 448 1 109.50000 418.400000
447 11351 448 1 109.50000 418.400000
451 11352 452 1 109.50000 418.400000
451 11352 453 1 109.50000 418.400000
451 11352 454 1 109.50000 418.400000
452 11352 453 1 109.50000 418.400000
452 11352 454 1 109.50000 418.400000
453 11352 454 1 109.50000 418.400000
455 11353 456 1 109.50000 418.400000
455 11353 457 1 109.50000 418.400000
455 11353 458 1 109.50000 418.400000
456 11353 457 1 109.50000 418.400000
456 11353 458 1 109.50000 418.400000
457 11353 458 1 109.50000 418.400000
461 11354 462 1 109.50000 418.400000
461 11354 463 1 109.50000 418.400000
461 11354 464 1 109.50000 418.400000
462 11354 463 1 109.50000 418.400000
462 11354 464 1 109.50000 418.400000
463 11354 464 1 109.50000 418.400000
465 11355 466 1 109.50000 418.400000
465 11355 467 1 109.50000 418.400000
465 11355 468 1 109.50000 418.400000
466 11355 467 1 109.50000 418.400000
466 11355 468 1 109.50000 418.400000
467 11355 468 1 109.50000 418.400000
469 11356 470 1 109.50000 418.400000
469 11356 471 1 109.50000 418.400000
469 11356 472 1 109.50000 418.400000
470 11356 471 1 109.50000 418.400000
470 11356 472 1 109.50000 418.400000
471 11356 472 1 109.50000 418.400000
475 11357 476 1 109.50000 418.400000
475 11357 477 1 109.50000 418.400000
475 11357 478 1 109.50000 418.400000
476 11357 477 1 109.50000 418.400000
476 11357 478 1 109.50000 418.400000
477 11357 478 1 109.50000 418.400000
479 11358 482 1 109.50000 418.400000
479 11358 4167 1 109.50000 418.400000
479 11358 4168 1 109.50000 418.400000
482 11358 4167 1 109.50000 418.400000
482 11358 4168 1 109.50000 418.400000
4167 11358 4168 1 109.50000 418.400000
483 11359 484 1 109.50000 418.400000
483 11359 485 1 109.50000 418.400000
483 11359 486 1 109.50000 418.400000
484 11359 485 1 109.50000 418.400000
484 11359 486 1 109.50000 418.400000
485 11359 486 1 109.50000 418.400000
487 11360 488 1 109.50000 418.400000
487 11360 489 1 109.50000 418.400000
487 11360 490 1 109.50000 418.400000
488 11360 489 1 109.50000 418.400000
488 11360 490 1 109.50000 418.400000
489 11360 490 1 109.50000 418.400000
491 11361 492 1 109.50000 418.400000
491 11361 493 1 109.50000 418.400000
491 11361 494 1 109.50000 418.400000
492 11361 493 1 109.50000 418.400000
492 11361 494 1 109.50000 418.400000
493 11361 494 1 109.50000 418.400000
496 11362 497 1 109.50000 418.400000
496 11362 498 1 109.50000 418.400000
496 11362 7669 1 109.50000 418.400000
497 11362 498 1 109.50000 418.400000
497 11362 7669 1 109.50000 418.400000
498 11362 7669 1 109.50000 418.400000
500 11363 501 1 109.50000 418.400000
500 11363 502 1 109.50000 418.400000
500 11363 503 1 109.50000 418.400000
501 11363 502 1 109.50000 418.400000
501 11363 503 1 109.50000 418.400000
502 11363 503 1 109.50000 418.400000
504 11364 505 1 109.50000 418.400000
504 11364 506 1 109.50000 418.400000
504 11364 507 1 109.50000 418.400000
505 11364 506 1 109.50000 418.400000
505 11364 507 1 109.50000 418.400000
506 11364 507 1 109.50000 418.400000
508 11365 509 1 109.50000 418.400000
508 11365 510 1 109.50000 418.400000
508 11365 511 1 109.50000 418.400000
509 11365 510 1 109.50000 418.400000
509 11365 511 1 109.50000 418.400000
510 11365 511 1 109.50000 418.400000
123 11366 512 1 109.50000 418.400000
123 11366 513 1 109.50000 418.400000
123 11366 514 1 109.50000 418.400000
512 11366 513 1 109.50000 418.400000
512 11366 514 1 109.50000 418.400000
513 11366 514 1 109.50000 418.400000
515 11367 516 1 109.50000 418.400000
515 11367 517 1 109.50000 418.400000
515 11367 11230 1 109.50000 418.400000
516 11367 517 1 109.50000 418.400000
516 11367 11230 1 109.50000 418.400000
517 11367 11230 1 109.50000 418.400000
521 11368 522 1 109.50000 418.400000
521 11368 524 1 109.50000 418.400000
521 11368 4624 1 109.50000 418.400000
522 11368 524 1 109.50000 418.400000
522 11368 4624 1 109.50000 418.400000
524 11368 4624 1 109.50000 418.400000
525 11369 526 1 109.50000 418.400000
525 11369 527 1 109.50000 418.400000
525 11369 528 1 109.50000 418.400000
526 11369 527 1 109.50000 418.400000
526 11369 528 1 109.50000 418.400000
527 11369 528 1 109.50000 418.400000
529 11370 530 1 109.50000 418.400000
529 11370 531 1 109.50000 418.400000
529 11370 532 1 109.50000 418.400000
530 11370 531 1 109.50000 418.400000
530 11370 532 1 109.50000 418.400000
531 11370 532 1 109.50000 418.400000
503 11371 533 1 109.50000 418.400000
503 11371 534 1 109.50000 418.400000
503 11371 535 1 109.50000 418.400000
533 11371 534 1 109.50000 418.400000
533 11371 535 1 109.50000 418.400000
534 11371 535 1 109.50000 418.400000
5 11372 536 1 109.50000 418.400000
5 11372 537 1 109.50000 418.400000
5 11372 538 1 109.50000 418.400000
536 11372 537 1 109.50000 418.400000
536 11372 538 1 109.50000 418.400000
537 11372 538 1 109.50000 418.400000
539 11373 540 1 109.50000 418.400000
539 11373 541 1 109.50000 418.400000
539 11373 542 1 109.50000 418.400000
540 11373 541 1 109.50000 418.400000
540 11373 542 1 109.50000 418.400000
541 11373 542 1 109.50000 418.400000
545 11374 1597 1 109.50000 418.400000
545 11374 4639 1 109.50000 418.400000
545 11374 4640 1 109.50000 418.400000
1597 11374 4639 1 109.50000 418.400000
1597 11374 4640 1 109.50000 418.400000
4639 11374 4640 1 109.50000 418.400000
249 11375 426 1 109.50000 418.400000
249 11375 546 1 109.50000 418.400000
249 11375 547 1 109.50000 418.400000
426 11375 546 1 109.50000 418.400000
426 11375 547 1 109.50000 418.400000
546 11375 547 1 109.50000 418.400000
548 11376 549 1 109.50000 418.400000
548 11376 550 1 109.50000 418.400000
548 11376 551 1 109.50000 418.400000
549 11376 550 1 109.50000 418.400000
549 11376 551 1 109.50000 418.400000
550 11376 551 1 109.50000 418.400000
552 11377 553 1 109.50000 418.400000
552 11377 554 1 109.50000 418.400000
552 11377 1131 1 109.50000 418.400000
553 11377 554 1 109.50000 418.400000
553 11377 1131 1 109.50000 418.400000
554 11377 1131 1 109.50000 418.400000
562 11378 563 1 109.50000 418.400000
562 11378 564 1 109.50000 418.400000
562 11378 565 1 109.50000 418.400000
563 11378 564 1 109.50000 418.400000
563 11378 565 1 109.50000 418.400000
564 11378 565 1 109.50000 418.400000
566 11379 567 1 109.50000 418.400000
566 11379 568 1 109.50000 418.400000
566 11379 569 1 109.50000 418.400000
567 11379 568 1 109.50000 418.400000
567 11379 569 1 109.50000 418.400000
568 11379 569 1 109.50000 418.400000
570 11380 571 1 109.50000 418.400000
570 11380 572 1 109.50000 418.400000
570 11380 573 1 109.50000 418.400000
571 11380 572 1 109.50000 418.400000
571 11380 573 1 109.50000 418.400000
572 11380 573 1 109.50000 418.400000
574 11381 575 1 109.50000 418.400000
574 11381 576 1 109.50000 418.400000
574 11381 577 1 109.50000 418.400000
575 11381 576 1 109.50000 418.400000
575 11381 577 1 109.50000 418.400000
576 11381 577 1 109.50000 418.400000
347 11382 580 1 109.50000 418.400000
347 11382 581 1 109.50000 418.400000
347 11382 582 1 109.50000 418.400000
580 11382 581 1 109.50000 418.400000
580 11382 582 1 109.50000 418.400000
581 11382 582 1 109.50000 418.400000
585 11383 586 1 109.50000 418.400000
585 11383 587 1 109.50000 418.400000
585 11383 588 1 109.50000 418.400000
586 11383 587 1 109.50000 418.400000
586 11383 588 1 109.50000 418.400000
587 11383 588 1 109.50000 418.400000
589 11384 590 1 109.50000 418.400000
589 11384 591 1 109.50000 418.400000
589 11384 592 1 109.50000 418.400000
590 11384 591 1 109.50000 418.400000
590 11384 592 1 109.50000 418.400000
591 11384 592 1 109.50000 418.400000
593 11385 594 1 109.50000 418.400000
593 11385 595 1 109.50000 418.400000
593 11385 596 1 109.50000 418.400000
594 11385 595 1 109.50000 418.400000
594 11385 596 1 109.50000 418.400000
595 11385 596 1 109.50000 418.400000
597 11386 598 1 109.50000 418.400000
597 11386 599 1 109.50000 418.400000
597 11386 600 1 109.50000 418.400000
598 11386 599 1 109.50000 418.400000
598 11386 600 1 109.50000 418.400000
599 11386 600 1 109.50000 418.400000
604 11387 605 1 109.50000 418.400000
604 11387 606 1 109.50000 418.400000
604 11387 607 1 109.50000 418.400000
605 11387 606 1 109.50000 418.400000
605 11387 607 1 109.50000 418.400000
606 11387 607 1 109.50000 418.400000
606 11388 608 1 109.50000 418.400000
606 11388 609 1 109.50000 418.400000
606 11388 610 1 109.50000 418.400000
608 11388 609 1 109.50000 418.400000
608 11388 610 1 109.50000 418.400000
609 11388 610 1 109.50000 418.400000
611 11389 612 1 109.50000 418.400000
611 11389 613 1 109.50000 418.400000
611 11389 614 1 109.50000 418.400000
612 11389 613 1 109.50000 418.400000
612 11389 614 1 109.50000 418.400000
613 11389 614 1 109.50000 418.400000
615 11390 616 1 109.50000 418.400000
615 11390 617 1 109.50000 418.400000
615 11390 618 1 109.50000 418.400000
616 11390 617 1 109.50000 418.400000
616 11390 618 1 109.50000 418.400000
617 11390 618 1 109.50000 418.400000
622 11391 623 1 109.50000 418.400000
622 11391 624 1 109.50000 418.400000
622 11391 625 1 109.50000 418.400000
623 11391 624 1 109.50000 418.400000
623 11391 625 1 109.50000 418.400000
624 11391 625 1 109.50000 418.400000
375 11392 626 1 109.50000 418.400000
375 11392 627 1 109.50000 418.400000
375 11392 628 1 109.50000 418.400000
626 11392 627 1 109.50000 418.400000
626 11392 628 1 109.50000 418.400000
627 11392 628 1 109.50000 418.400000
292 11393 629 1 109.50000 418.400000
292 11393 630 1 109.50000 418.400000
292 11393 631 1 109.50000 418.400000
629 11393 630 1 109.50000 418.400000
629 11393 631 1 109.50000 418.400000
630 11393 631 1 109.50000 418.400000
632 11394 633 1 109.50000 418.400000
632 11394 634 1 109.50000 418.400000
632 11394 635 1 109.50000 418.400000
633 11394 634 1 109.50000 418.400000
633 11394 635 1 109.50000 418.400000
634 11394 635 1 109.50000 418.400000
636 11395 637 1 109.50000 418.400000
636 11395 638 1 109.50000 418.400000
636 11395 639 1 109.50000 418.400000
637 11395 638 1 109.50000 418.400000
637 11395 639 1 109.50000 418.400000
638 11395 639 1 109.50000 418.400000
640 11396 641 1 109.50000 418.400000
640 11396 642 1 109.50000 418.400000
640 11396 643 1 109.50000 418.400000
641 11396 642 1 109.50000 418.400000
641 11396 643 1 109.50000 418.400000
642 11396 643 1 109.50000 418.400000
445 11397 644 1 109.50000 418.400000
445 11397 645 1 109.50000 418.400000
445 11397 646 1 109.50000 418.400000
644 11397 645 1 109.50000 418.400000
644 11397 646 1 109.50000 418.400000
645 11397 646 1 109.50000 418.400000
647 11398 648 1 109.50000 418.400000
647 11398 649 1 109.50000 418.400000
647 11398 650 1 109.50000 418.400000
648 11398 649 1 109.50000 418.400000
648 11398 650 1 109.50000 418.400000
649 11398 650 1 109.50000 418.400000
651 11399 652 1 109.50000 418.400000
651 11399 653 1 109.50000 418.400000
651 11399 654 1 109.50000 418.400000
652 11399 653 1 109.50000 418.400000
652 11399 654 1 109.50000 418.400000
653 11399 654 1 109.50000 418.400000
388 11400 629 1 109.50000 418.400000
388 11400 655 1 109.50000 418.400000
388 11400 656 1 109.50000 418.400000
629 11400 655 1 109.50000 418.400000
629 11400 656 1 109.50000 418.400000
655 11400 656 1 109.50000 418.400000
657 11401 658 1 109.50000 418.400000
657 11401 659 1 109.50000 418.400000
657 11401 4295 1 109.50000 418.400000
658 11401 659 1 109.50000 418.400000
658 11401 4295 1 109.50000 418.400000
659 11401 4295 1 109.50000 418.400000
661 11402 662 1 109.50000 418.400000
661 11402 664 1 109.50000 418.400000
661 11402 6555 1 109.50000 418.400000
662 11402 664 1 109.50000 418.400000
662 11402 6555 1 109.50000 418.400000
664 11402 6555 1 109.50000 418.400000
665 11403 667 1 109.50000 418.400000
665 11403 668 1 109.50000 418.400000
665 11403 3695 1 109.50000 418.400000
667 11403 668 1 109.50000 418.400000
667 11403 3695 1 109.50000 418.400000
668 11403 3695 1 109.50000 418.400000
671 11404 672 1 109.50000 418.400000
671 11404 674 1 109.50000 418.400000
671 11404 8622 1 109.50000 418.400000
672 11404 674 1 109.50000 418.400000
672 11404 8622 1 109.50000 418.400000
674 11404 8622 1 109.50000 418.400000
675 11405 676 1 109.50000 418.400000
675 11405 677 1 109.50000 418.400000
675 11405 11170 1 109.50000 418.400000
676 11405 677 1 109.50000 418.400000
676 11405 11170 1 109.50000 418.400000
677 11405 11170 1 109.50000 418.400000
678 11406 679 1 109.50000 418.400000
678 11406 680 1 109.50000 418.400000
678 11406 850 1 109.50000 418.400000
679 11406 680 1 109.50000 418.400000
679 11406 850 1 109.50000 418.400000
680 11406 850 1 109.50000 418.400000
682 11407 684 1 109.50000 418.400000
682 11407 685 1 109.50000 418.400000
682 11407 760 1 109.50000 418.400000
684 11407 685 1 109.50000 418.400000
684 11407 760 1 109.50000 418.400000
685 11407 760 1 109.50000 418.400000
686 11408 687 1 109.50000 418.400000
686 11408 688 1 109.50000 418.400000
686 11408 689 1 109.50000 418.400000
687 11408 688 1 109.50000 418.400000
687 11408 689 1 109.50000 418.400000
688 11408 689 1 109.50000 418.400000
401 11409 690 1 109.50000 418.400000
401 11409 692 1 109.50000 418.400000
401 11409 1749 1 109.50000 418.400000
690 11409 692 1 109.50000 418.400000
690 11409 1749 1 109.50000 418.400000
692 11409 1749 1 109.50000 418.400000
693 11410 694 1 109.50000 418.400000
693 11410 695 1 109.50000 418.400000
693 11410 696 1 109.50000 418.400000
694 11410 695 1 109.50000 418.400000
694 11410 696 1 109.50000 418.400000
695 11410 696 1 109.50000 418.400000
697 11411 698 1 109.50000 418.400000
697 11411 699 1 109.50000 418.400000
697 11411 700 1 109.50000 418.400000
698 11411 699 1 109.50000 418.400000
698 11411 700 1 109.50000 418.400000
699 11411 700 1 109.50000 418.400000
176 11412 701 1 109.50000 418.400000
176 11412 702 1 109.50000 418.400000
176 11412 703 1 109.50000 418.400000
701 11412 702 1 109.50000 418.400000
701 11412 703 1 109.50000 418.400000
702 11412 703 1 109.50000 418.400000
704 11413 705 1 109.50000 418.400000
704 11413 706 1 109.50000 418.400000
704 11413 707 1 109.50000 418.400000
705 11413 706 1 109.50000 418.400000
705 11413 707 1 109.50000 418.400000
706 11413 707 1 109.50000 418.400000
708 11414 709 1 109.50000 418.400000
708 11414 710 1 109.50000 418.400000
708 11414 711 1 109.50000 418.400000
709 11414 710 1 109.50000 418.400000
709 11414 711 1 109.50000 418.400000
710 11414 711 1 109.50000 418.400000
712 11415 713 1 109.50000 418.400000
712 11415 714 1 109.50000 418.400000
712 11415 7002 1 109.50000 418.400000
713 11415 714 1 109.50000 418.400000
713 11415 7002 1 109.50000 418.400000
714 11415 7002 1 109.50000 418.400000
717 11416 718 1 109.50000 418.400000
717 11416 3464 1 109.50000 418.400000
717 11416 7773 1 109.50000 418.400000
718 11416 3464 1 109.50000 418.400000
718 11416 7773 1 109.50000 418.400000
3464 11416 7773 1 109.50000 418.400000
719 11417 720 1 109.50000 418.400000
719 11417 721 1 109.50000 418.400000
719 11417 11152 1 109.50000 418.400000
720 11417 721 1 109.50000 418.400000
720 11417 11152 1 109.50000 418.400000
721 11417 11152 1 109.50000 418.400000
725 11418 726 1 109.50000 418.400000
725 11418 727 1 109.50000 418.400000
725 11418 728 1 109.50000 418.400000
726 11418 727 1 109.50000 418.400000
726 11418 728 1 109.50000 418.400000
727 11418 728 1 109.50000 418.400000
729 11419 730 1 109.50000 418.400000
729 11419 731 1 109.50000 418.400000
729 11419 732 1 109.50000 418.400000
730 11419 731 1 109.50000 418.400000
730 11419 732 1 109.50000 418.400000
731 11419 732 1 109.50000 418.400000
733 11420 734 1 109.50000 418.400000
733 11420 735 1 109.50000 418.400000
733 11420 736 1 109.50000 418.400000
734 11420 735 1 109.50000 418.400000
734 11420 736 1 109.50000 418.400000
735 11420 736 1 109.50000 418.400000
737 11421 738 1 109.50000 418.400000
737 11421 739 1 109.50000 418.400000
737 11421 740 1 109.50000 418.400000
738 11421 739 1 109.50000 418.400000
738 11421 740 1 109.50000 418.400000
739 11421 740 1 109.50000 418.400000
741 11422 742 1 109.50000 418.400000
741 11422 743 1 109.50000 418.400000
741 11422 744 1 109.50000 418.400000
742 11422 743 1 109.50000 418.400000
742 11422 744 1 109.50000 418.400000
743 11422 744 1 109.50000 418.400000
745 11423 746 1 109.50000 418.400000
745 11423 747 1 109.50000 418.400000
745 11423 748 1 109.50000 418.400000
746 11423 747 1 109.50000 418.400000
746 11423 748 1 109.50000 418.400000
747 11423 748 1 109.50000 418.400000
749 11424 750 1 109.50000 418.400000
749 11424 751 1 109.50000 418.400000
749 11424 752 1 109.50000 418.400000
750 11424 751 1 109.50000 418.400000
750 11424 752 1 109.50000 418.400000
751 11424 752 1 109.50000 418.400000
753 11425 754 1 109.50000 418.400000
753 11425 755 1 109.50000 418.400000
753 11425 756 1 109.50000 418.400000
754 11425 755 1 109.50000 418.400000
754 11425 756 1 109.50000 418.400000
755 11425 756 1 109.50000 418.400000
757 11426 758 1 109.50000 418.400000
757 11426 759 1 109.50000 418.400000
757 11426 760 1 109.50000 418.400000
758 11426 759 1 109.50000 418.400000
758 11426 760 1 109.50000 418.400000
759 11426 760 1 109.50000 418.400000
761 11427 762 1 109.50000 418.400000
761 11427 763 1 109.50000 418.400000
761 11427 764 1 109.50000 418.400000
762 11427 763 1 109.50000 418.400000
762 11427 764 1 109.50000 418.400000
763 11427 764 1 109.50000 418.400000
765 11428 766 1 109.50000 418.400000
765 11428 767 1 109.50000 418.400000
765 11428 768 1 109.50000 418.400000
766 11428 767 1 109.50000 418.400000
766 11428 768 1 109.50000 418.400000
767 11428 768 1 109.50000 418.400000
769 11429 770 1 109.50000 418.400000
769 11429 771 1 109.50000 418.400000
769 11429 772 1 109.50000 418.400000
770 11429 771 1 109.50000 418.400000
770 11429 772 1 109.50000 418.400000
771 11429 772 1 109.50000 418.400000
65 11430 773 1 109.50000 418.400000
65 11430 774 1 109.50000 418.400000
65 11430 775 1 109.50000 418.400000
773 11430 774 1 109.50000 418.400000
773 11430 775 1 109.50000 418.400000
774 11430 775 1 109.50000 418.400000
362 11431 776 1 109.50000 418.400000
362 11431 777 1 109.50000 418.400000
362 11431 2574 1 109.50000 418.400000
776 11431 777 1 109.50000 418.400000
776 11431 2574 1 109.50000 418.400000
777 11431 2574 1 109.50000 418.400000
779 11432 780 1 109.50000 418.400000
779 11432 781 1 109.50000 418.400000
779 11432 782 1 109.50000 418.400000
780 11432 781 1 109.50000 418.400000
780 11432 782 1 109.50000 418.400000
781 11432 782 1 109.50000 418.400000
786 11433 787 1 109.50000 418.400000
786 11433 788 1 109.50000 418.400000
786 11433 789 1 109.50000 418.400000
787 11433 788 1 109.50000 418.400000
787 11433 789 1 109.50000 418.400000
788 11433 789 1 109.50000 418.400000
599 11434 794 1 109.50000 418.400000
599 11434 795 1 109.50000 418.400000
599 11434 796 1 109.50000 418.400000
794 11434 795 1 109.50000 418.400000
794 11434 796 1 109.50000 418.400000
795 11434 796 1 109.50000 418.400000
802 11435 803 1 109.50000 418.400000
802 11435 804 1 109.50000 418.400000
802 11435 805 1 109.50000 418.400000
803 11435 804 1 109.50000 418.400000
803 11435 805 1 109.50000 418.400000
804 11435 805 1 109.50000 418.400000
806 11436 807 1 109.50000 418.400000
806 11436 808 1 109.50000 418.400000
806 11436 2074 1 109.50000 418.400000
807 11436 808 1 109.50000 418.400000
807 11436 2074 1 109.50000 418.400000
808 11436 2074 1 109.50000 418.400000
813 11437 843 1 109.50000 418.400000
813 11437 5920 1 109.50000 418.400000
813 11437 7740 1 109.50000 418.400000
843 11437 5920 1 109.50000 418.400000
843 11437 7740 1 109.50000 418.400000
5920 11437 7740 1 109.50000 418.400000
814 11438 815 1 109.50000 418.400000
814 11438 816 1 109.50000 418.400000
814 11438 817 1 109.50000 418.400000
815 11438 816 1 109.50000 418.400000
815 11438 817 1 109.50000 418.400000
816 11438 817 1 109.50000 418.400000
818 11439 819 1 109.50000 418.400000
818 11439 820 1 109.50000 418.400000
818 11439 821 1 109.50000 418.400000
819 11439 820 1 109.50000 418.400000
819 11439 821 1 109.50000 418.400000
820 11439 821 1 109.50000 418.400000
404 11440 822 1 109.50000 418.400000
404 11440 823 1 109.50000 418.400000
404 11440 824 1 109.50000 418.400000
822 11440 823 1 109.50000 418.400000
822 11440 824 1 109.50000 418.400000
823 11440 824 1 109.50000 418.400000
825 11441 827 1 109.50000 418.400000
825 11441 828 1 109.50000 418.400000
825 11441 6852 1 109.50000 418.400000
827 11441 828 1 109.50000 418.400000
827 11441 6852 1 109.50000 418.400000
828 11441 6852 1 109.50000 418.400000
829 11442 830 1 109.50000 418.400000
829 11442 831 1 109.50000 418.400000
829 11442 832 1 109.50000 418.400000
830 11442 831 1 109.50000 418.400000
830 11442 832 1 109.50000 418.400000
831 11442 832 1 109.50000 418.400000
833 11443 834 1 109.50000 418.400000
833 11443 835 1 109.50000 418.400000
833 11443 836 1 109.50000 418.400000
834 11443 835 1 109.50000 418.400000
834 11443 836 1 109.50000 418.400000
835 11443 836 1 109.50000 418.400000
841 11444 842 1 109.50000 418.400000
841 11444 843 1 109.50000 418.400000
841 11444 844 1 109.50000 418.400000
842 11444 843 1 109.50000 418.400000
842 11444 844 1 109.50000 418.400000
843 11444 844 1 109.50000 418.400000
430 11445 846 1 109.50000 418.400000
430 11445 847 1 109.50000 418.400000
430 11445 848 1 109.50000 418.400000
846 11445 847 1 109.50000 418.400000
846 11445 848 1 109.50000 418.400000
847 11445 848 1 109.50000 418.400000
678 11446 681 1 109.50000 418.400000
678 11446 849 1 109.50000 418.400000
678 11446 851 1 109.50000 418.400000
681 11446 849 1 109.50000 418.400000
681 11446 851 1 109.50000 418.400000
849 11446 851 1 109.50000 418.400000
852 11447 853 1 109.50000 418.400000
852 11447 854 1 109.50000 418.400000
852 11447 855 1 109.50000 418.400000
853 11447 854 1 109.50000 418.400000
853 11447 855 1 109.50000 418.400000
854 11447 855 1 109.50000 418.400000
856 11448 857 1 109.50000 418.400000
856 11448 858 1 109.50000 418.400000
856 11448 859 1 109.50000 418.400000
857 11448 858 1 109.50000 418.400000
857 11448 859 1 109.50000 418.400000
858 11448 859 1 109.50000 418.400000
860 11449 861 1 109.50000 418.400000
860 11449 862 1 109.50000 418.400000
860 11449 863 1 109.50000 418.400000
861 11449 862 1 109.50000 418.400000
861 11449 863 1 109.50000 418.400000
862 11449 863 1 109.50000 418.400000
864 11450 865 1 109.50000 418.400000
864 11450 867 1 109.50000 418.400000
864 11450 986 1 109.50000 418.400000
865 11450 867 1 109.50000 418.400000
865 11450 986 1 109.50000 418.400000
867 11450 986 1 109.50000 418.400000
723 11451 868 1 109.50000 418.400000
723 11451 869 1 109.50000 418.400000
723 11451 870 1 109.50000 418.400000
868 11451 869 1 109.50000 418.400000
868 11451 870 1 109.50000 418.400000
869 11451 870 1 109.50000 418.400000
871 11452 872 1 109.50000 418.400000
871 11452 873 1 109.50000 418.400000
871 11452 874 1 109.50000 418.400000
872 11452 873 1 109.50000 418.400000
872 11452 874 1 109.50000 418.400000
873 11452 874 1 109.50000 418.400000
875 11453 876 1 109.50000 418.400000
875 11453 877 1 109.50000 418.400000
875 11453 878 1 109.50000 418.400000
876 11453 877 1 109.50000 418.400000
876 11453 878 1 109.50000 418.400000
877 11453 878 1 109.50000 418.400000
879 11454 880 1 109.50000 418.400000
879 11454 881 1 109.50000 418.400000
879 11454 882 1 109.50000 418.400000
880 11454 881 1 109.50000 418.400000
880 11454 882 1 109.50000 418.400000
881 11454 882 1 109.50000 418.400000
883 11455 884 1 109.50000 418.400000
883 11455 885 1 109.50000 418.400000
883 11455 886 1 109.50000 418.400000
884 11455 885 1 109.50000 418.400000
884 11455 886 1 109.50000 418.400000
885 11455 886 1 109.50000 418.400000
890 11456 891 1 109.50000 418.400000
890 11456 892 1 109.50000 418.400000
890 11456 893 1 109.50000 418.400000
891 11456 892 1 109.50000 418.400000
891 11456 893 1 109.50000 418.400000
892 11456 893 1 109.50000 418.400000
894 11457 1220 1 109.50000 418.400000
894 11457 4030 1 109.50000 418.400000
894 11457 9955 1 109.50000 418.400000
1220 11457 4030 1 109.50000 418.400000
1220 11457 9955 1 109.50000 418.400000
4030 11457 9955 1 109.50000 418.400000
898 11458 899 1 109.50000 418.400000
898 11458 900 1 109.50000 418.400000
898 11458 901 1 109.50000 418.400000
899 11458 900 1 109.50000 418.400000
899 11458 901 1 109.50000 418.400000
900 11458 901 1 109.50000 418.400000
904 11459 1030 1 109.50000 418.400000
904 11459 4463 1 109.50000 418.400000
904 11459 5476 1 109.50000 418.400000
1030 11459 4463 1 109.50000 418.400000
1030 11459 5476 1 109.50000 418.400000
4463 11459 5476 1 109.50000 418.400000
907 11460 908 1 109.50000 418.400000
907 11460 909 1 109.50000 418.400000
907 11460 5450 1 109.50000 418.400000
908 11460 909 1 109.50000 418.400000
908 11460 5450 1 109.50000 418.400000
909 11460 5450 1 109.50000 418.400000
910 11461 911 1 109.50000 418.400000
910 11461 912 1 109.50000 418.400000
910 11461 913 1 109.50000 418.400000
911 11461 912 1 109.50000 418.400000
911 11461 913 1 109.50000 418.400000
912 11461 913 1 109.50000 418.400000
914 11462 915 1 109.50000 418.400000
914 11462 916 1 109.50000 418.400000
914 11462 917 1 109.50000 418.400000
915 11462 916 1 109.50000 418.400000
915 11462 917 1 109.50000 418.400000
916 11462 917 1 109.50000 418.400000
488 11463 918 1 109.50000 418.400000
488 11463 919 1 109.50000 418.400000
488 11463 920 1 109.50000 418.400000
918 11463 919 1 109.50000 418.400000
918 11463 920 1 109.50000 418.400000
919 11463 920 1 109.50000 418.400000
921 11464 922 1 109.50000 418.400000
921 11464 923 1 109.50000 418.400000
921 11464 924 1 109.50000 418.400000
922 11464 923 1 109.50000 418.400000
922 11464 924 1 109.50000 418.400000
923 11464 924 1 109.50000 418.400000
925 11465 926 1 109.50000 418.400000
925 11465 927 1 109.50000 418.400000
925 11465 928 1 109.50000 418.400000
926 11465 927 1 109.50000 418.400000
926 11465 928 1 109.50000 418.400000
927 11465 928 1 109.50000 418.400000
929 11466 930 1 109.50000 418.400000
929 11466 931 1 109.50000 418.400000
929 11466 932 1 109.50000 418.400000
930 11466 931 1 109.50000 418.400000
930 11466 932 1 109.50000 418.400000
931 11466 932 1 109.50000 418.400000
933 11467 934 1 109.50000 418.400000
933 11467 935 1 109.50000 418.400000
933 11467 936 1 109.50000 418.400000
934 11467 935 1 109.50000 418.400000
934 11467 936 1 109.50000 418.400000
935 11467 936 1 109.50000 418.400000
937 11468 938 1 109.50000 418.400000
937 11468 939 1 109.50000 418.400000
937 11468 940 1 109.50000 418.400000
938 11468 939 1 109.50000 418.400000
938 11468 940 1 109.50000 418.400000
939 11468 940 1 109.50000 418.400000
941 11469 942 1 109.50000 418.400000
941 11469 943 1 109.50000 418.400000
941 11469 944 1 109.50000 418.400000
942 11469 943 1 109.50000 418.400000
942 11469 944 1 109.50000 418.400000
943 11469 944 1 109.50000 418.400000
945 11470 946 1 109.50000 418.400000
945 11470 947 1 109.50000 418.400000
945 11470 948 1 109.50000 418.400000
946 11470 947 1 109.50000 418.400000
946 11470 948 1 109.50000 418.400000
947 11470 948 1 109.50000 418.400000
950 11471 951 1 109.50000 418.400000
950 11471 952 1 109.50000 418.400000
950 11471 8456 1 109.50000 418.400000
951 11471 952 1 109.50000 418.400000
951 11471 8456 1 109.50000 418.400000
952 11471 8456 1 109.50000 418.400000
953 11472 954 1 109.50000 418.400000
953 11472 955 1 109.50000 418.400000
953 11472 956 1 109.50000 418.400000
954 11472 955 1 109.50000 418.400000
954 11472 956 1 109.50000 418.400000
955 11472 956 1 109.50000 418.400000
957 11473 958 1 109.50000 418.400000
957 11473 1203 1 109.50000 418.400000
957 11473 3770 1 109.50000 418.400000
958 11473 1203 1 109.50000 418.400000
958 11473 3770 1 109.50000 418.400000
1203 11473 3770 1 109.50000 418.400000
925 11474 961 1 109.50000 418.400000
925 11474 962 1 109.50000 418.400000
925 11474 963 1 109.50000 418.400000
961 11474 962 1 109.50000 418.400000
961 11474 963 1 109.50000 418.400000
962 11474 963 1 109.50000 418.400000
966 11475 967 1 109.50000 418.400000
966 11475 968 1 109.50000 418.400000
966 11475 969 1 109.50000 418.400000
967 11475 968 1 109.50000 418.400000
967 11475 969 1 109.50000 418.400000
968 11475 969 1 109.50000 418.400000
970 11476 971 1 109.50000 418.400000
970 11476 972 1 109.50000 418.400000
970 11476 973 1 109.50000 418.400000
971 11476 972 1 109.50000 418.400000
971 11476 973 1 109.50000 418.400000
972 11476 973 1 109.50000 418.400000
974 11477 975 1 109.50000 418.400000
974 11477 976 1 109.50000 418.400000
974 11477 977 1 109.50000 418.400000
975 11477 976 1 109.50000 418.400000
975 11477 977 1 109.50000 418.400000
976 11477 977 1 109.50000 418.400000
981 11478 983 1 109.50000 418.400000
981 11478 984 1 109.50000 418.400000
981 11478 5879 1 109.50000 418.400000
983 11478 984 1 109.50000 418.400000
983 11478 5879 1 109.50000 418.400000
984 11478 5879 1 109.50000 418.400000
865 11479 866 1 109.50000 418.400000
865 11479 987 1 109.50000 418.400000
865 11479 988 1 109.50000 418.400000
866 11479 987 1 109.50000 418.400000
866 11479 988 1 109.50000 418.400000
987 11479 988 1 109.50000 418.400000
989 11480 990 1 109.50000 418.400000
989 11480 991 1 109.50000 418.400000
989 11480 992 1 109.50000 418.400000
990 11480 991 1 109.50000 418.400000
990 11480 992 1 109.50000 418.400000
991 11480 992 1 109.50000 418.400000
331 11481 993 1 109.50000 418.400000
331 11481 994 1 109.50000 418.400000
331 11481 995 1 109.50000 418.400000
993 11481 994 1 109.50000 418.400000
993 11481 995 1 109.50000 418.400000
994 11481 995 1 109.50000 418.400000
996 11482 997 1 109.50000 418.400000
996 11482 998 1 109.50000 418.400000
996 11482 999 1 109.50000 418.400000
997 11482 998 1 109.50000 418.400000
997 11482 999 1 109.50000 418.400000
998 11482 999 1 109.50000 418.400000
1000 11483 1001 1 109.50000 418.400000
1000 11483 1002 1 109.50000 418.400000
1000 11483 1003 1 109.50000 418.400000
1001 11483 1002 1 109.50000 418.400000
1001 11483 1003 1 109.50000 418.400000
1002 11483 1003 1 109.50000 418.400000
1004 11484 1005 1 109.50000 418.400000
1004 11484 1006 1 109.50000 418.400000
1004 11484 1007 1 109.50000 418.400000
1005 11484 1006 1 109.50000 418.400000
1005 11484 1007 1 109.50000 418.400000
1006 11484 1007 1 109.50000 418.400000
1008 11485 1009 1 109.50000 418.400000
1008 11485 1011 1 109.50000 418.400000
1008 11485 9846 1 109.50000 418.400000
1009 11485 1011 1 109.50000 418.400000
1009 11485 9846 1 109.50000 418.400000
1011 11485 9846 1 109.50000 418.400000
1012 11486 1013 1 109.50000 418.400000
1012 11486 1014 1 109.50000 418.400000
1012 11486 1015 1 109.50000 418.400000
1013 11486 1014 1 109.50000 418.400000
1013 11486 1015 1 109.50000 418.400000
1014 11486 1015 1 109.50000 418.400000
1016 11487 1017 1 109.50000 418.400000
1016 11487 1018 1 109.50000 418.400000
1016 11487 1019 1 109.50000 418.400000
1017 11487 1018 1 109.50000 418.400000
1017 11487 1019 1 109.50000 418.400000
1018 11487 1019 1 109.50000 418.400000
953 11488 1020 1 109.50000 418.400000
953 11488 1021 1 109.50000 418.400000
953 11488 1022 1 109.50000 418.400000
1020 11488 1021 1 109.50000 418.400000
1020 11488 1022 1 109.50000 418.400000
1021 11488 1022 1 109.50000 418.400000
1023 11489 1024 1 109.50000 418.400000
1023 11489 1025 1 109.50000 418.400000
1023 11489 1026 1 109.50000 418.400000
1024 11489 1025 1 109.50000 418.400000
1024 11489 1026 1 109.50000 418.400000
1025 11489 1026 1 109.50000 418.400000
1030 11490 1031 1 109.50000 418.400000
1030 11490 1032 1 109.50000 418.400000
1030 11490 1033 1 109.50000 418.400000
1031 11490 1032 1 109.50000 418.400000
1031 11490 1033 1 109.50000 418.400000
1032 11490 1033 1 109.50000 418.400000
1039 11491 1312 1 109.50000 418.400000
1039 11491 2942 1 109.50000 418.400000
1039 11491 10422 1 109.50000 418.400000
1312 11491 2942 1 109.50000 418.400000
1312 11491 10422 1 109.50000 418.400000
2942 11491 10422 1 109.50000 418.400000
869 11492 1040 1 109.50000 418.400000
869 11492 1041 1 109.50000 418.400000
869 11492 1042 1 109.50000 418.400000
1040 11492 1041 1 109.50000 418.400000
1040 11492 1042 1 109.50000 418.400000
1041 11492 1042 1 109.50000 418.400000
1042 11493 1043 1 109.50000 418.400000
1042 11493 1044 1 109.50000 418.400000
1042 11493 11167 1 109.50000 418.400000
1043 11493 1044 1 109.50000 418.400000
1043 11493 11167 1 109.50000 418.400000
1044 11493 11167 1 109.50000 418.400000
1045 11494 1046 1 109.50000 418.400000
1045 11494 1047 1 109.50000 418.400000
1045 11494 1048 1 109.50000 418.400000
1046 11494 1047 1 109.50000 418.400000
1046 11494 1048 1 109.50000 418.400000
1047 11494 1048 1 109.50000 418.400000
398 11495 1049 1 109.50000 418.400000
398 11495 1050 1 109.50000 418.400000
398 11495 1051 1 109.50000 418.400000
1049 11495 1050 1 109.50000 418.400000
1049 11495 1051 1 109.50000 418.400000
1050 11495 1051 1 109.50000 418.400000
1052 11496 1053 1 109.50000 418.400000
1052 11496 1054 1 109.50000 418.400000
1052 11496 1055 1 109.50000 418.400000
1053 11496 1054 1 109.50000 418.400000
1053 11496 1055 1 109.50000 418.400000
1054 11496 1055 1 109.50000 418.400000
1056 11497 1057 1 109.50000 418.400000
1056 11497 1058 1 109.50000 418.400000
1056 11497 1059 1 109.50000 418.400000
1057 11497 1058 1 109.50000 418.400000
1057 11497 1059 1 109.50000 418.400000
1058 11497 1059 1 109.50000 418.400000
856 11498 1060 1 109.50000 418.400000
856 11498 1061 1 109.50000 418.400000
856 11498 8585 1 109.50000 418.400000
1060 11498 1061 1 109.50000 418.400000
1060 11498 8585 1 109.50000 418.400000
1061 11498 8585 1 109.50000 418.400000
1064 11499 6547 1 109.50000 418.400000
1064 11499 6548 1 109.50000 418.400000
1064 11499 6549 1 109.50000 418.400000
6547 11499 6548 1 109.50000 418.400000
6547 11499 6549 1 109.50000 418.400000
6548 11499 6549 1 109.50000 418.400000
1066 11500 1067 1 109.50000 418.400000
1066 11500 1068 1 109.50000 418.400000
1066 11500 1069 1 109.50000 418.400000
1067 11500 1068 1 109.50000 418.400000
1067 11500 1069 1 109.50000 418.400000
1068 11500 1069 1 109.50000 418.400000
570 11501 1070 1 109.50000 418.400000
570 11501 1071 1 109.50000 418.400000
570 11501 1072 1 109.50000 418.400000
1070 11501 1071 1 109.50000 418.400000
1070 11501 1072 1 109.50000 418.400000
1071 11501 1072 1 109.50000 418.400000
1073 11502 1074 1 109.50000 418.400000
1073 11502 1075 1 109.50000 418.400000
1073 11502 1076 1 109.50000 418.400000
1074 11502 1075 1 109.50000 418.400000
1074 11502 1076 1 109.50000 418.400000
1075 11502 1076 1 109.50000 418.400000
1077 11503 1078 1 109.50000 418.400000
1077 11503 1079 1 109.50000 418.400000
1077 11503 1080 1 109.50000 418.400000
1078 11503 1079 1 109.50000 418.400000
1078 11503 1080 1 109.50000 418.400000
1079 11503 1080 1 109.50000 418.400000
1081 11504 1082 1 109.50000 418.400000
1081 11504 1083 1 109.50000 418.400000
1081 11504 1084 1 109.50000 418.400000
1082 11504 1083 1 109.50000 418.400000
1082 11504 1084 1 109.50000 418.400000
1083 11504 1084 1 109.50000 418.400000
1085 11505 1086 1 109.50000 418.400000
1085 11505 1087 1 109.50000 418.400000
1085 11505 1088 1 109.50000 418.400000
1086 11505 1087 1 109.50000 418.400000
1086 11505 1088 1 109.50000 418.400000
1087 11505 1088 1 109.50000 418.400000
1089 11506 1090 1 109.50000 418.400000
1089 11506 1091 1 109.50000 418.400000
1089 11506 1092 1 109.50000 418.400000
1090 11506 1091 1 109.50000 418.400000
1090 11506 1092 1 109.50000 418.400000
1091 11506 1092 1 109.50000 418.400000
609 11507 1093 1 109.50000 418.400000
609 11507 1094 1 109.50000 418.400000
609 11507 1095 1 109.50000 418.400000
1093 11507 1094 1 109.50000 418.400000
1093 11507 1095 1 109.50000 418.400000
1094 11507 1095 1 109.50000 418.400000
1096 11508 1097 1 109.50000 418.400000
1096 11508 1098 1 109.50000 418.400000
1096 11508 1099 1 109.50000 418.400000
1097 11508 1098 1 109.50000 418.400000
1097 11508 1099 1 109.50000 418.400000
1098 11508 1099 1 109.50000 418.400000
1100 11509 1101 1 109.50000 418.400000
1100 11509 1102 1 109.50000 418.400000
1100 11509 1103 1 109.50000 418.400000
1101 11509 1102 1 109.50000 418.400000
1101 11509 1103 1 109.50000 418.400000
1102 11509 1103 1 109.50000 418.400000
101 11510 1104 1 109.50000 418.400000
101 11510 1105 1 109.50000 418.400000
101 11510 1106 1 109.50000 418.400000
1104 11510 1105 1 109.50000 418.400000
1104 11510 1106 1 109.50000 418.400000
1105 11510 1106 1 109.50000 418.400000
1107 11511 1647 1 109.50000 418.400000
1107 11511 1649 1 109.50000 418.400000
1107 11511 3057 1 109.50000 418.400000
1647 11511 1649 1 109.50000 418.400000
1647 11511 3057 1 109.50000 418.400000
1649 11511 3057 1 109.50000 418.400000
1113 11512 1115 1 109.50000 418.400000
1113 11512 1116 1 109.50000 418.400000
1113 11512 4528 1 109.50000 418.400000
1115 11512 1116 1 109.50000 418.400000
1115 11512 4528 1 109.50000 418.400000
1116 11512 4528 1 109.50000 418.400000
1117 11513 1118 1 109.50000 418.400000
1117 11513 1119 1 109.50000 418.400000
1117 11513 1120 1 109.50000 418.400000
1118 11513 1119 1 109.50000 418.400000
1118 11513 1120 1 109.50000 418.400000
1119 11513 1120 1 109.50000 418.400000
1121 11514 1122 1 109.50000 418.400000
1121 11514 1123 1 109.50000 418.400000
1121 11514 1124 1 109.50000 418.400000
1122 11514 1123 1 109.50000 418.400000
1122 11514 1124 1 109.50000 418.400000
1123 11514 1124 1 109.50000 418.400000
1008 11515 1125 1 109.50000 418.400000
1008 11515 1126 1 109.50000 418.400000
1008 11515 1127 1 109.50000 418.400000
1125 11515 1126 1 109.50000 418.400000
1125 11515 1127 1 109.50000 418.400000
1126 11515 1127 1 109.50000 418.400000
758 11516 992 1 109.50000 418.400000
758 11516 1128 1 109.50000 418.400000
758 11516 1129 1 109.50000 418.400000
992 11516 1128 1 109.50000 418.400000
992 11516 1129 1 109.50000 418.400000
1128 11516 1129 1 109.50000 418.400000
553 11517 555 1 109.50000 418.400000
553 11517 1130 1 109.50000 418.400000
553 11517 1132 1 109.50000 418.400000
555 11517 1130 1 109.50000 418.400000
555 11517 1132 1 109.50000 418.400000
1130 11517 1132 1 109.50000 418.400000
1133 11518 1134 1 109.50000 418.400000
1133 11518 1135 1 109.50000 418.400000
1133 11518 1136 1 109.50000 418.400000
1134 11518 1135 1 109.50000 418.400000
1134 11518 1136 1 109.50000 418.400000
1135 11518 1136 1 109.50000 418.400000
1138 11519 1139 1 109.50000 418.400000
1138 11519 1140 1 109.50000 418.400000
1138 11519 1141 1 109.50000 418.400000
1139 11519 1140 1 109.50000 418.400000
1139 11519 1141 1 109.50000 418.400000
1140 11519 1141 1 109.50000 418.400000
1142 11520 1143 1 109.50000 418.400000
1142 11520 1144 1 109.50000 418.400000
1142 11520 1145 1 109.50000 418.400000
1143 11520 1144 1 109.50000 418.400000
1143 11520 1145 1 109.50000 418.400000
1144 11520 1145 1 109.50000 418.400000
1146 11521 1147 1 109.50000 418.400000
1146 11521 1148 1 109.50000 418.400000
1146 11521 1149 1 109.50000 418.400000
1147 11521 1148 1 109.50000 418.400000
1147 11521 1149 1 109.50000 418.400000
1148 11521 1149 1 109.50000 418.400000
151 11522 1150 1 109.50000 418.400000
151 11522 1152 1 109.50000 418.400000
151 11522 7371 1 109.50000 418.400000
1150 11522 1152 1 109.50000 418.400000
1150 11522 7371 1 109.50000 418.400000
1152 11522 7371 1 109.50000 418.400000
1153 11523 1154 1 109.50000 418.400000
1153 11523 1155 1 109.50000 418.400000
1153 11523 1156 1 109.50000 418.400000
1154 11523 1155 1 109.50000 418.400000
1154 11523 1156 1 109.50000 418.400000
1155 11523 1156 1 109.50000 418.400000
941 11524 1157 1 109.50000 418.400000
941 11524 1158 1 109.50000 418.400000
941 11524 1159 1 109.50000 418.400000
1157 11524 1158 1 109.50000 418.400000
1157 11524 1159 1 109.50000 418.400000
1158 11524 1159 1 109.50000 418.400000
1161 11525 1162 1 109.50000 418.400000
1161 11525 6020 1 109.50000 418.400000
1161 11525 6021 1 109.50000 418.400000
1162 11525 6020 1 109.50000 418.400000
1162 11525 6021 1 109.50000 418.400000
6020 11525 6021 1 109.50000 418.400000
1164 11526 1165 1 109.50000 418.400000
1164 11526 1166 1 109.50000 418.400000
1164 11526 1167 1 109.50000 418.400000
1165 11526 1166 1 109.50000 418.400000
1165 11526 1167 1 109.50000 418.400000
1166 11526 1167 1 109.50000 418.400000
1168 11527 1169 1 109.50000 418.400000
1168 11527 1170 1 109.50000 418.400000
1168 11527 1171 1 109.50000 418.400000
1169 11527 1170 1 109.50000 418.400000
1169 11527 1171 1 109.50000 418.400000
1170 11527 1171 1 109.50000 418.400000
1172 11528 1173 1 109.50000 418.400000
1172 11528 1174 1 109.50000 418.400000
1172 11528 1175 1 109.50000 418.400000
1173 11528 1174 1 109.50000 418.400000
1173 11528 1175 1 109.50000 418.400000
1174 11528 1175 1 109.50000 418.400000
531 11529 1176 1 109.50000 418.400000
531 11529 1177 1 109.50000 418.400000
531 11529 1178 1 109.50000 418.400000
1176 11529 1177 1 109.50000 418.400000
1176 11529 1178 1 109.50000 418.400000
1177 11529 1178 1 109.50000 418.400000
1181 11530 1182 1 109.50000 418.400000
1181 11530 1183 1 109.50000 418.400000
1181 11530 1184 1 109.50000 418.400000
1182 11530 1183 1 109.50000 418.400000
1182 11530 1184 1 109.50000 418.400000
1183 11530 1184 1 109.50000 418.400000
1185 11531 1186 1 109.50000 418.400000
1185 11531 1187 1 109.50000 418.400000
1185 11531 1188 1 109.50000 418.400000
1186 11531 1187 1 109.50000 418.400000
1186 11531 1188 1 109.50000 418.400000
1187 11531 1188 1 109.50000 418.400000
1189 11532 1190 1 109.50000 418.400000
1189 11532 1191 1 109.50000 418.400000
1189 11532 5161 1 109.50000 418.400000
1190 11532 1191 1 109.50000 418.400000
1190 11532 5161 1 109.50000 418.400000
1191 11532 5161 1 109.50000 418.400000
1193 11533 1194 1 109.50000 418.400000
1193 11533 1195 1 109.50000 418.400000
1193 11533 1196 1 109.50000 418.400000
1194 11533 1195 1 109.50000 418.400000
1194 11533 1196 1 109.50000 418.400000
1195 11533 1196 1 109.50000 418.400000
1143 11534 1197 1 109.50000 418.400000
1143 11534 1198 1 109.50000 418.400000
1143 11534 10092 1 109.50000 418.400000
1197 11534 1198 1 109.50000 418.400000
1197 11534 10092 1 109.50000 418.400000
1198 11534 10092 1 109.50000 418.400000
1200 11535 1201 1 109.50000 418.400000
1200 11535 1202 1 109.50000 418.400000
1200 11535 7373 1 109.50000 418.400000
1201 11535 1202 1 109.50000 418.400000
1201 11535 7373 1 109.50000 418.400000
1202 11535 7373 1 109.50000 418.400000
957 11536 959 1 109.50000 418.400000
957 11536 1204 1 109.50000 418.400000
957 11536 1205 1 109.50000 418.400000
959 11536 1204 1 109.50000 418.400000
959 11536 1205 1 109.50000 418.400000
1204 11536 1205 1 109.50000 418.400000
316 11537 1208 1 109.50000 418.400000
316 11537 1209 1 109.50000 418.400000
316 11537 1210 1 109.50000 418.400000
1208 11537 1209 1 109.50000 418.400000
1208 11537 1210 1 109.50000 418.400000
1209 11537 1210 1 109.50000 418.400000
1211 11538 1212 1 109.50000 418.400000
1211 11538 1213 1 109.50000 418.400000
1211 11538 1214 1 109.50000 418.400000
1212 11538 1213 1 109.50000 418.400000
1212 11538 1214 1 109.50000 418.400000
1213 11538 1214 1 109.50000 418.400000
1215 11539 1216 1 109.50000 418.400000
1215 11539 1217 1 109.50000 418.400000
1215 11539 1218 1 109.50000 418.400000
1216 11539 1217 1 109.50000 418.400000
1216 11539 1218 1 109.50000 418.400000
1217 11539 1218 1 109.50000 418.400000
894 11540 896 1 109.50000 418.400000
894 11540 1219 1 109.50000 418.400000
894 11540 1221 1 109.50000 418.400000
896 11540 1219 1 109.50000 418.400000
896 11540 1221 1 109.50000 418.400000
1219 11540 1221 1 109.50000 418.400000
1225 11541 1226 1 109.50000 418.400000
1225 11541 1227 1 109.50000 418.400000
1225 11541 1228 1 109.50000 418.400000
1226 11541 1227 1 109.50000 418.400000
1226 11541 1228 1 109.50000 418.400000
1227 11541 1228 1 109.50000 418.400000
1229 11542 1230 1 109.50000 418.400000
1229 11542 1231 1 109.50000 418.400000
1229 11542 1232 1 109.50000 418.400000
1230 11542 1231 1 109.50000 418.400000
1230 11542 1232 1 109.50000 418.400000
1231 11542 1232 1 109.50000 418.400000
1233 11543 1234 1 109.50000 418.400000
1233 11543 1235 1 109.50000 418.400000
1233 11543 1236 1 109.50000 418.400000
1234 11543 1235 1 109.50000 418.400000
1234 11543 1236 1 109.50000 418.400000
1235 11543 1236 1 109.50000 418.400000
687 11544 1240 1 109.50000 418.400000
687 11544 1241 1 109.50000 418.400000
687 11544 1242 1 109.50000 418.400000
1240 11544 1241 1 109.50000 418.400000
1240 11544 1242 1 109.50000 418.400000
1241 11544 1242 1 109.50000 418.400000
390 11545 1243 1 109.50000 418.400000
390 11545 1244 1 109.50000 418.400000
390 11545 1245 1 109.50000 418.400000
1243 11545 1244 1 109.50000 418.400000
1243 11545 1245 1 109.50000 418.400000
1244 11545 1245 1 109.50000 418.400000
1246 11546 1247 1 109.50000 418.400000
1246 11546 1248 1 109.50000 418.400000
1246 11546 1249 1 109.50000 418.400000
1247 11546 1248 1 109.50000 418.400000
1247 11546 1249 1 109.50000 418.400000
1248 11546 1249 1 109.50000 418.400000
1250 11547 1251 1 109.50000 418.400000
1250 11547 1252 1 109.50000 418.400000
1250 11547 1253 1 109.50000 418.400000
1251 11547 1252 1 109.50000 418.400000
1251 11547 1253 1 109.50000 418.400000
1252 11547 1253 1 109.50000 418.400000
1254 11548 1255 1 109.50000 418.400000
1254 11548 1256 1 109.50000 418.400000
1254 11548 1257 1 109.50000 418.400000
1255 11548 1256 1 109.50000 418.400000
1255 11548 1257 1 109.50000 418.400000
1256 11548 1257 1 109.50000 418.400000
1259 11549 1260 1 109.50000 418.400000
1259 11549 1261 1 109.50000 418.400000
1259 11549 1262 1 109.50000 418.400000
1260 11549 1261 1 109.50000 418.400000
1260 11549 1262 1 109.50000 418.400000
1261 11549 1262 1 109.50000 418.400000
160 11550 1263 1 109.50000 418.400000
160 11550 1264 1 109.50000 418.400000
160 11550 1265 1 109.50000 418.400000
1263 11550 1264 1 109.50000 418.400000
1263 11550 1265 1 109.50000 418.400000
1264 11550 1265 1 109.50000 418.400000
1266 11551 1267 1 109.50000 418.400000
1266 11551 1268 1 109.50000 418.400000
1266 11551 1269 1 109.50000 418.400000
1267 11551 1268 1 109.50000 418.400000
1267 11551 1269 1 109.50000 418.400000
1268 11551 1269 1 109.50000 418.400000
1270 11552 1271 1 109.50000 418.400000
1270 11552 1272 1 109.50000 418.400000
1270 11552 1273 1 109.50000 418.400000
1271 11552 1272 1 109.50000 418.400000
1271 11552 1273 1 109.50000 418.400000
1272 11552 1273 1 109.50000 418.400000
1274 11553 1275 1 109.50000 418.400000
1274 11553 1276 1 109.50000 418.400000
1274 11553 1277 1 109.50000 418.400000
1275 11553 1276 1 109.50000 418.400000
1275 11553 1277 1 109.50000 418.400000
1276 11553 1277 1 109.50000 418.400000
1278 11554 1279 1 109.50000 418.400000
1278 11554 1280 1 109.50000 418.400000
1278 11554 1281 1 109.50000 418.400000
1279 11554 1280 1 109.50000 418.400000
1279 11554 1281 1 109.50000 418.400000
1280 11554 1281 1 109.50000 418.400000
1282 11555 1283 1 109.50000 418.400000
1282 11555 1285 1 109.50000 418.400000
1282 11555 8383 1 109.50000 418.400000
1283 11555 1285 1 109.50000 418.400000
1283 11555 8383 1 109.50000 418.400000
1285 11555 8383 1 109.50000 418.400000
949 11556 1289 1 109.50000 418.400000
949 11556 1290 1 109.50000 418.400000
949 11556 1291 1 109.50000 418.400000
1289 11556 1290 1 109.50000 418.400000
1289 11556 1291 1 109.50000 418.400000
1290 11556 1291 1 109.50000 418.400000
1292 11557 1293 1 109.50000 418.400000
1292 11557 1294 1 109.50000 418.400000
1292 11557 1295 1 109.50000 418.400000
1293 11557 1294 1 109.50000 418.400000
1293 11557 1295 1 109.50000 418.400000
1294 11557 1295 1 109.50000 418.400000
668 11558 1296 1 109.50000 418.400000
668 11558 1297 1 109.50000 418.400000
668 11558 1298 1 109.50000 418.400000
1296 11558 1297 1 109.50000 418.400000
1296 11558 1298 1 109.50000 418.400000
1297 11558 1298 1 109.50000 418.400000
1299 11559 1300 1 109.50000 418.400000
1299 11559 1301 1 109.50000 418.400000
1299 11559 1302 1 109.50000 418.400000
1300 11559 1301 1 109.50000 418.400000
1300 11559 1302 1 109.50000 418.400000
1301 11559 1302 1 109.50000 418.400000
1303 11560 1305 1 109.50000 418.400000
1303 11560 1306 1 109.50000 418.400000
1303 11560 8986 1 109.50000 418.400000
1305 11560 1306 1 109.50000 418.400000
1305 11560 8986 1 109.50000 418.400000
1306 11560 8986 1 109.50000 418.400000
1047 11561 1307 1 109.50000 418.400000
1047 11561 1308 1 109.50000 418.400000
1047 11561 1309 1 109.50000 418.400000
1307 11561 1308 1 109.50000 418.400000
1307 11561 1309 1 109.50000 418.400000
1308 11561 1309 1 109.50000 418.400000
1225 11562 1310 1 109.50000 418.400000
1225 11562 1311 1 109.50000 418.400000
1225 11562 1312 1 109.50000 418.400000
1310 11562 1311 1 109.50000 418.400000
1310 11562 1312 1 109.50000 418.400000
1311 11562 1312 1 109.50000 418.400000
1313 11563 1314 1 109.50000 418.400000
1313 11563 1315 1 109.50000 418.400000
1313 11563 1316 1 109.50000 418.400000
1314 11563 1315 1 109.50000 418.400000
1314 11563 1316 1 109.50000 418.400000
1315 11563 1316 1 109.50000 418.400000
1317 11564 1318 1 109.50000 418.400000
1317 11564 1319 1 109.50000 418.400000
1317 11564 1320 1 109.50000 418.400000
1318 11564 1319 1 109.50000 418.400000
1318 11564 1320 1 109.50000 418.400000
1319 11564 1320 1 109.50000 418.400000
1321 11565 1322 1 109.50000 418.400000
1321 11565 1323 1 109.50000 418.400000
1321 11565 1324 1 109.50000 418.400000
1322 11565 1323 1 109.50000 418.400000
1322 11565 1324 1 109.50000 418.400000
1323 11565 1324 1 109.50000 418.400000
1325 11566 1326 1 109.50000 418.400000
1325 11566 1327 1 109.50000 418.400000
1325 11566 1328 1 109.50000 418.400000
1326 11566 1327 1 109.50000 418.400000
1326 11566 1328 1 109.50000 418.400000
1327 11566 1328 1 109.50000 418.400000
1332 11567 1333 1 109.50000 418.400000
1332 11567 1334 1 109.50000 418.400000
1332 11567 1335 1 109.50000 418.400000
1333 11567 1334 1 109.50000 418.400000
1333 11567 1335 1 109.50000 418.400000
1334 11567 1335 1 109.50000 418.400000
1336 11568 1337 1 109.50000 418.400000
1336 11568 1338 1 109.50000 418.400000
1336 11568 1339 1 109.50000 418.400000
1337 11568 1338 1 109.50000 418.400000
1337 11568 1339 1 109.50000 418.400000
1338 11568 1339 1 109.50000 418.400000
311 11569 1340 1 109.50000 418.400000
311 11569 1341 1 109.50000 418.400000
311 11569 1342 1 109.50000 418.400000
1340 11569 1341 1 109.50000 418.400000
1340 11569 1342 1 109.50000 418.400000
1341 11569 1342 1 109.50000 418.400000
1345 11570 1346 1 109.50000 418.400000
1345 11570 1347 1 109.50000 418.400000
1345 11570 1348 1 109.50000 418.400000
1346 11570 1347 1 109.50000 418.400000
1346 11570 1348 1 109.50000 418.400000
1347 11570 1348 1 109.50000 418.400000
1351 11571 5197 1 109.50000 418.400000
1351 11571 7319 1 109.50000 418.400000
1351 11571 7320 1 109.50000 418.400000
5197 11571 7319 1 109.50000 418.400000
5197 11571 7320 1 109.50000 418.400000
7319 11571 7320 1 109.50000 418.400000
1353 11572 1355 1 109.50000 418.400000
1353 11572 1356 1 109.50000 418.400000
1353 11572 9709 1 109.50000 418.400000
1355 11572 1356 1 109.50000 418.400000
1355 11572 9709 1 109.50000 418.400000
1356 11572 9709 1 109.50000 418.400000
1358 11573 1360 1 109.50000 418.400000
1358 11573 3234 1 109.50000 418.400000
1358 11573 3235 1 109.50000 418.400000
1360 11573 3234 1 109.50000 418.400000
1360 11573 3235 1 109.50000 418.400000
3234 11573 3235 1 109.50000 418.400000
1361 11574 1362 1 109.50000 418.400000
1361 11574 1363 1 109.50000 418.400000
1361 11574 1364 1 109.50000 418.400000
1362 11574 1363 1 109.50000 418.400000
1362 11574 1364 1 109.50000 418.400000
1363 11574 1364 1 109.50000 418.400000
1365 11575 1366 1 109.50000 418.400000
1365 11575 1367 1 109.50000 418.400000
1365 11575 1368 1 109.50000 418.400000
1366 11575 1367 1 109.50000 418.400000
1366 11575 1368 1 109.50000 418.400000
1367 11575 1368 1 109.50000 418.400000
1369 11576 1370 1 109.50000 418.400000
1369 11576 1371 1 109.50000 418.400000
1369 11576 1372 1 109.50000 418.400000
1370 11576 1371 1 109.50000 418.400000
1370 11576 1372 1 109.50000 418.400000
1371 11576 1372 1 109.50000 418.400000
4 11577 1373 1 109.50000 418.400000
4 11577 1374 1 109.50000 418.400000
4 11577 1375 1 109.50000 418.400000
1373 11577 1374 1 109.50000 418.400000
1373 11577 1375 1 109.50000 418.400000
1374 11577 1375 1 109.50000 418.400000
1376 11578 1377 1 109.50000 418.400000
1376 11578 1378 1 109.50000 418.400000
1376 11578 1379 1 109.50000 418.400000
1377 11578 1378 1 109.50000 418.400000
1377 11578 1379 1 109.50000 418.400000
1378 11578 1379 1 109.50000 418.400000
1383 11579 1384 1 109.50000 418.400000
1383 11579 1385 1 109.50000 418.400000
1383 11579 1386 1 109.50000 418.400000
1384 11579 1385 1 109.50000 418.400000
1384 11579 1386 1 109.50000 418.400000
1385 11579 1386 1 109.50000 418.400000
1390 11580 1391 1 109.50000 418.400000
1390 11580 1392 1 109.50000 418.400000
1390 11580 1393 1 109.50000 418.400000
1391 11580 1392 1 109.50000 418.400000
1391 11580 1393 1 109.50000 418.400000
1392 11580 1393 1 109.50000 418.400000
1394 11581 1395 1 109.50000 418.400000
1394 11581 1396 1 109.50000 418.400000
1394 11581 1397 1 109.50000 418.400000
1395 11581 1396 1 109.50000 418.400000
1395 11581 1397 1 109.50000 418.400000
1396 11581 1397 1 109.50000 418.400000
1398 11582 1399 1 109.50000 418.400000
1398 11582 1400 1 109.50000 418.400000
1398 11582 1401 1 109.50000 418.400000
1399 11582 1400 1 109.50000 418.400000
1399 11582 1401 1 109.50000 418.400000
1400 11582 1401 1 109.50000 418.400000
1402 11583 1404 1 109.50000 418.400000
1402 11583 1405 1 109.50000 418.400000
1402 11583 3796 1 109.50000 418.400000
1404 11583 1405 1 109.50000 418.400000
1404 11583 3796 1 109.50000 418.400000
1405 11583 3796 1 109.50000 418.400000
1410 11584 1411 1 109.50000 418.400000
1410 11584 1412 1 109.50000 418.400000
1410 11584 5204 1 109.50000 418.400000
1411 11584 1412 1 109.50000 418.400000
1411 11584 5204 1 109.50000 418.400000
1412 11584 5204 1 109.50000 418.400000
1218 11585 1415 1 109.50000 418.400000
1218 11585 1416 1 109.50000 418.400000
1218 11585 1417 1 109.50000 418.400000
1415 11585 1416 1 109.50000 418.400000
1415 11585 1417 1 109.50000 418.400000
1416 11585 1417 1 109.50000 418.400000
1418 11586 1419 1 109.50000 418.400000
1418 11586 1420 1 109.50000 418.400000
1418 11586 1421 1 109.50000 418.400000
1419 11586 1420 1 109.50000 418.400000
1419 11586 1421 1 109.50000 418.400000
1420 11586 1421 1 109.50000 418.400000
1422 11587 1423 1 109.50000 418.400000
1422 11587 1424 1 109.50000 418.400000
1422 11587 1425 1 109.50000 418.400000
1423 11587 1424 1 109.50000 418.400000
1423 11587 1425 1 109.50000 418.400000
1424 11587 1425 1 109.50000 418.400000
1426 11588 1427 1 109.50000 418.400000
1426 11588 1428 1 109.50000 418.400000
1426 11588 1429 1 109.50000 418.400000
1427 11588 1428 1 109.50000 418.400000
1427 11588 1429 1 109.50000 418.400000
1428 11588 1429 1 109.50000 418.400000
984 11589 1430 1 109.50000 418.400000
984 11589 1431 1 109.50000 418.400000
984 11589 1432 1 109.50000 418.400000
1430 11589 1431 1 109.50000 418.400000
1430 11589 1432 1 109.50000 418.400000
1431 11589 1432 1 109.50000 418.400000
339 11590 1433 1 109.50000 418.400000
339 11590 1434 1 109.50000 418.400000
339 11590 1435 1 109.50000 418.400000
1433 11590 1434 1 109.50000 418.400000
1433 11590 1435 1 109.50000 418.400000
1434 11590 1435 1 109.50000 418.400000
1436 11591 1437 1 109.50000 418.400000
1436 11591 1438 1 109.50000 418.400000
1436 11591 1439 1 109.50000 418.400000
1437 11591 1438 1 109.50000 418.400000
1437 11591 1439 1 109.50000 418.400000
1438 11591 1439 1 109.50000 418.400000
1440 11592 1441 1 109.50000 418.400000
1440 11592 1442 1 109.50000 418.400000
1440 11592 8166 1 109.50000 418.400000
1441 11592 1442 1 109.50000 418.400000
1441 11592 8166 1 109.50000 418.400000
1442 11592 8166 1 109.50000 418.400000
1445 11593 1446 1 109.50000 418.400000
1445 11593 1447 1 109.50000 418.400000
1445 11593 1448 1 109.50000 418.400000
1446 11593 1447 1 109.50000 418.400000
1446 11593 1448 1 109.50000 418.400000
1447 11593 1448 1 109.50000 418.400000
129 11594 1451 1 109.50000 418.400000
129 11594 1452 1 109.50000 418.400000
129 11594 1453 1 109.50000 418.400000
1451 11594 1452 1 109.50000 418.400000
1451 11594 1453 1 109.50000 418.400000
1452 11594 1453 1 109.50000 418.400000
1454 11595 1455 1 109.50000 418.400000
1454 11595 1456 1 109.50000 418.400000
1454 11595 11161 1 109.50000 418.400000
1455 11595 1456 1 109.50000 418.400000
1455 11595 11161 1 109.50000 418.400000
1456 11595 11161 1 109.50000 418.400000
1256 11596 1457 1 109.50000 418.400000
1256 11596 1458 1 109.50000 418.400000
1256 11596 1459 1 109.50000 418.400000
1457 11596 1458 1 109.50000 418.400000
1457 11596 1459 1 109.50000 418.400000
1458 11596 1459 1 109.50000 418.400000
1461 11597 1462 1 109.50000 418.400000
1461 11597 8161 1 109.50000 418.400000
1461 11597 8162 1 109.50000 418.400000
1462 11597 8161 1 109.50000 418.400000
1462 11597 8162 1 109.50000 418.400000
8161 11597 8162 1 109.50000 418.400000
1464 11598 1465 1 109.50000 418.400000
1464 11598 1466 1 109.50000 418.400000
1464 11598 1467 1 109.50000 418.400000
1465 11598 1466 1 109.50000 418.400000
1465 11598 1467 1 109.50000 418.400000
1466 11598 1467 1 109.50000 418.400000
1472 11599 1473 1 109.50000 418.400000
1472 11599 1474 1 109.50000 418.400000
1472 11599 1475 1 109.50000 418.400000
1473 11599 1474 1 109.50000 418.400000
1473 11599 1475 1 109.50000 418.400000
1474 11599 1475 1 109.50000 418.400000
1478 11600 1479 1 109.50000 418.400000
1478 11600 1480 1 109.50000 418.400000
1478 11600 1481 1 109.50000 418.400000
1479 11600 1480 1 109.50000 418.400000
1479 11600 1481 1 109.50000 418.400000
1480 11600 1481 1 109.50000 418.400000
1482 11601 1483 1 109.50000 418.400000
1482 11601 1484 1 109.50000 418.400000
1482 11601 1485 1 109.50000 418.400000
1483 11601 1484 1 109.50000 418.400000
1483 11601 1485 1 109.50000 418.400000
1484 11601 1485 1 109.50000 418.400000
1486 11602 1487 1 109.50000 418.400000
1486 11602 1488 1 109.50000 418.400000
1486 11602 1489 1 109.50000 418.400000
1487 11602 1488 1 109.50000 418.400000
1487 11602 1489 1 109.50000 418.400000
1488 11602 1489 1 109.50000 418.400000
1490 11603 1491 1 109.50000 418.400000
1490 11603 1492 1 109.50000 418.400000
1490 11603 1493 1 109.50000 418.400000
1491 11603 1492 1 109.50000 418.400000
1491 11603 1493 1 109.50000 418.400000
1492 11603 1493 1 109.50000 418.400000
1494 11604 1495 1 109.50000 418.400000
1494 11604 1496 1 109.50000 418.400000
1494 11604 1497 1 109.50000 418.400000
1495 11604 1496 1 109.50000 418.400000
1495 11604 1497 1 109.50000 418.400000
1496 11604 1497 1 109.50000 418.400000
1498 11605 1500 1 109.50000 418.400000
1498 11605 1501 1 109.50000 418.400000
1498 11605 3617 1 109.50000 418.400000
1500 11605 1501 1 109.50000 418.400000
1500 11605 3617 1 109.50000 418.400000
1501 11605 3617 1 109.50000 418.400000
1502 11606 1503 1 109.50000 418.400000
1502 11606 1504 1 109.50000 418.400000
1502 11606 1505 1 109.50000 418.400000
1503 11606 1504 1 109.50000 418.400000
1503 11606 1505 1 109.50000 418.400000
1504 11606 1505 1 109.50000 418.400000
1506 11607 1507 1 109.50000 418.400000
1506 11607 1508 1 109.50000 418.400000
1506 11607 1509 1 109.50000 418.400000
1507 11607 1508 1 109.50000 418.400000
1507 11607 1509 1 109.50000 418.400000
1508 11607 1509 1 109.50000 418.400000
1510 11608 1511 1 109.50000 418.400000
1510 11608 1512 1 109.50000 418.400000
1510 11608 1513 1 109.50000 418.400000
1511 11608 1512 1 109.50000 418.400000
1511 11608 1513 1 109.50000 418.400000
1512 11608 1513 1 109.50000 418.400000
1514 11609 1515 1 109.50000 418.400000
1514 11609 1516 1 109.50000 418.400000
1514 11609 1517 1 109.50000 418.400000
1515 11609 1516 1 109.50000 418.400000
1515 11609 1517 1 109.50000 418.400000
1516 11609 1517 1 109.50000 418.400000
1518 11610 1519 1 109.50000 418.400000
1518 11610 1520 1 109.50000 418.400000
1518 11610 1521 1 109.50000 418.400000
1519 11610 1520 1 109.50000 418.400000
1519 11610 1521 1 109.50000 418.400000
1520 11610 1521 1 109.50000 418.400000
1522 11611 1523 1 109.50000 418.400000
1522 11611 1524 1 109.50000 418.400000
1522 11611 1525 1 109.50000 418.400000
1523 11611 1524 1 109.50000 418.400000
1523 11611 1525 1 109.50000 418.400000
1524 11611 1525 1 109.50000 418.400000
1526 11612 1527 1 109.50000 418.400000
1526 11612 1528 1 109.50000 418.400000
1526 11612 1529 1 109.50000 418.400000
1527 11612 1528 1 109.50000 418.400000
1527 11612 1529 1 109.50000 418.400000
1528 11612 1529 1 109.50000 418.400000
1530 11613 1531 1 109.50000 418.400000
1530 11613 1532 1 109.50000 418.400000
1530 11613 1533 1 109.50000 418.400000
1531 11613 1532 1 109.50000 418.400000
1531 11613 1533 1 109.50000 418.400000
1532 11613 1533 1 109.50000 418.400000
1534 11614 1535 1 109.50000 418.400000
1534 11614 1536 1 109.50000 418.400000
1534 11614 1537 1 109.50000 418.400000
1535 11614 1536 1 109.50000 418.400000
1535 11614 1537 1 109.50000 418.400000
1536 11614 1537 1 109.50000 418.400000
1308 11615 1538 1 109.50000 418.400000
1308 11615 1539 1 109.50000 418.400000
1308 11615 1540 1 109.50000 418.400000
1538 11615 1539 1 109.50000 418.400000
1538 11615 1540 1 109.50000 418.400000
1539 11615 1540 1 109.50000 418.400000
1543 11616 1544 1 109.50000 418.400000
1543 11616 1545 1 109.50000 418.400000
1543 11616 1546 1 109.50000 418.400000
1544 11616 1545 1 109.50000 418.400000
1544 11616 1546 1 109.50000 418.400000
1545 11616 1546 1 109.50000 418.400000
1547 11617 1548 1 109.50000 418.400000
1547 11617 1549 1 109.50000 418.400000
1547 11617 1550 1 109.50000 418.400000
1548 11617 1549 1 109.50000 418.400000
1548 11617 1550 1 109.50000 418.400000
1549 11617 1550 1 109.50000 418.400000
1551 11618 1552 1 109.50000 418.400000
1551 11618 1553 1 109.50000 418.400000
1551 11618 1554 1 109.50000 418.400000
1552 11618 1553 1 109.50000 418.400000
1552 11618 1554 1 109.50000 418.400000
1553 11618 1554 1 109.50000 418.400000
1555 11619 1556 1 109.50000 418.400000
1555 11619 1557 1 109.50000 418.400000
1555 11619 1558 1 109.50000 418.400000
1556 11619 1557 1 109.50000 418.400000
1556 11619 1558 1 109.50000 418.400000
1557 11619 1558 1 109.50000 418.400000
1559 11620 1560 1 109.50000 418.400000
1559 11620 1561 1 109.50000 418.400000
1559 11620 1562 1 109.50000 418.400000
1560 11620 1561 1 109.50000 418.400000
1560 11620 1562 1 109.50000 418.400000
1561 11620 1562 1 109.50000 418.400000
1563 11621 1564 1 109.50000 418.400000
1563 11621 1565 1 109.50000 418.400000
1563 11621 1566 1 109.50000 418.400000
1564 11621 1565 1 109.50000 418.400000
1564 11621 1566 1 109.50000 418.400000
1565 11621 1566 1 109.50000 418.400000
1567 11622 1569 1 109.50000 418.400000
1567 11622 1570 1 109.50000 418.400000
1567 11622 3972 1 109.50000 418.400000
1569 11622 1570 1 109.50000 418.400000
1569 11622 3972 1 109.50000 418.400000
1570 11622 3972 1 109.50000 418.400000
1571 11623 1572 1 109.50000 418.400000
1571 11623 1573 1 109.50000 418.400000
1571 11623 1574 1 109.50000 418.400000
1572 11623 1573 1 109.50000 418.400000
1572 11623 1574 1 109.50000 418.400000
1573 11623 1574 1 109.50000 418.400000
1116 11624 1575 1 109.50000 418.400000
1116 11624 1577 1 109.50000 418.400000
1116 11624 1578 1 109.50000 418.400000
1575 11624 1577 1 109.50000 418.400000
1575 11624 1578 1 109.50000 418.400000
1577 11624 1578 1 109.50000 418.400000
1579 11625 1580 1 109.50000 418.400000
1579 11625 1581 1 109.50000 418.400000
1579 11625 1582 1 109.50000 418.400000
1580 11625 1581 1 109.50000 418.400000
1580 11625 1582 1 109.50000 418.400000
1581 11625 1582 1 109.50000 418.400000
208 11626 1583 1 109.50000 418.400000
208 11626 1584 1 109.50000 418.400000
208 11626 1585 1 109.50000 418.400000
1583 11626 1584 1 109.50000 418.400000
1583 11626 1585 1 109.50000 418.400000
1584 11626 1585 1 109.50000 418.400000
1052 11627 1586 1 109.50000 418.400000
1052 11627 1587 1 109.50000 418.400000
1052 11627 10998 1 109.50000 418.400000
1586 11627 1587 1 109.50000 418.400000
1586 11627 10998 1 109.50000 418.400000
1587 11627 10998 1 109.50000 418.400000
1589 11628 1590 1 109.50000 418.400000
1589 11628 1591 1 109.50000 418.400000
1589 11628 1592 1 109.50000 418.400000
1590 11628 1591 1 109.50000 418.400000
1590 11628 1592 1 109.50000 418.400000
1591 11628 1592 1 109.50000 418.400000
9 11629 1593 1 109.50000 418.400000
9 11629 1594 1 109.50000 418.400000
9 11629 1595 1 109.50000 418.400000
1593 11629 1594 1 109.50000 418.400000
1593 11629 1595 1 109.50000 418.400000
1594 11629 1595 1 109.50000 418.400000
226 11630 1596 1 109.50000 418.400000
226 11630 1597 1 109.50000 418.400000
226 11630 1598 1 109.50000 418.400000
1596 11630 1597 1 109.50000 418.400000
1596 11630 1598 1 109.50000 418.400000
1597 11630 1598 1 109.50000 418.400000
946 11631 1599 1 109.50000 418.400000
946 11631 1600 1 109.50000 418.400000
946 11631 1601 1 109.50000 418.400000
1599 11631 1600 1 109.50000 418.400000
1599 11631 1601 1 109.50000 418.400000
1600 11631 1601 1 109.50000 418.400000
113 11632 1602 1 109.50000 418.400000
113 11632 1603 1 109.50000 418.400000
113 11632 1604 1 109.50000 418.400000
1602 11632 1603 1 109.50000 418.400000
1602 11632 1604 1 109.50000 418.400000
1603 11632 1604 1 109.50000 418.400000
1605 11633 1606 1 109.50000 418.400000
1605 11633 1607 1 109.50000 418.400000
1605 11633 1608 1 109.50000 418.400000
1606 11633 1607 1 109.50000 418.400000
1606 11633 1608 1 109.50000 418.400000
1607 11633 1608 1 109.50000 418.400000
1609 11634 1610 1 109.50000 418.400000
1609 11634 1611 1 109.50000 418.400000
1609 11634 7765 1 109.50000 418.400000
1610 11634 1611 1 109.50000 418.400000
1610 11634 7765 1 109.50000 418.400000
1611 11634 7765 1 109.50000 418.400000
1187 11635 1613 1 109.50000 418.400000
1187 11635 1614 1 109.50000 418.400000
1187 11635 1615 1 109.50000 418.400000
1613 11635 1614 1 109.50000 418.400000
1613 11635 1615 1 109.50000 418.400000
1614 11635 1615 1 109.50000 418.400000
345 11636 1616 1 109.50000 418.400000
345 11636 1617 1 109.50000 418.400000
345 11636 1618 1 109.50000 418.400000
1616 11636 1617 1 109.50000 418.400000
1616 11636 1618 1 109.50000 418.400000
1617 11636 1618 1 109.50000 418.400000
1620 11637 1621 1 109.50000 418.400000
1620 11637 1622 1 109.50000 418.400000
1620 11637 2338 1 109.50000 418.400000
1621 11637 1622 1 109.50000 418.400000
1621 11637 2338 1 109.50000 418.400000
1622 11637 2338 1 109.50000 418.400000
1626 11638 1627 1 109.50000 418.400000
1626 11638 1628 1 109.50000 418.400000
1626 11638 1629 1 109.50000 418.400000
1627 11638 1628 1 109.50000 418.400000
1627 11638 1629 1 109.50000 418.400000
1628 11638 1629 1 109.50000 418.400000
1630 11639 1631 1 109.50000 418.400000
1630 11639 1632 1 109.50000 418.400000
1630 11639 8057 1 109.50000 418.400000
1631 11639 1632 1 109.50000 418.400000
1631 11639 8057 1 109.50000 418.400000
1632 11639 8057 1 109.50000 418.400000
1637 11640 1638 1 109.50000 418.400000
1637 11640 1639 1 109.50000 418.400000
1637 11640 1640 1 109.50000 418.400000
1638 11640 1639 1 109.50000 418.400000
1638 11640 1640 1 109.50000 418.400000
1639 11640 1640 1 109.50000 418.400000
79 11641 1641 1 109.50000 418.400000
79 11641 1642 1 109.50000 418.400000
79 11641 1643 1 109.50000 418.400000
1641 11641 1642 1 109.50000 418.400000
1641 11641 1643 1 109.50000 418.400000
1642 11641 1643 1 109.50000 418.400000
328 11642 995 1 109.50000 418.400000
328 11642 3056 1 109.50000 418.400000
328 11642 3577 1 109.50000 418.400000
995 11642 3056 1 109.50000 418.400000
995 11642 3577 1 109.50000 418.400000
3056 11642 3577 1 109.50000 418.400000
1652 11643 1653 1 109.50000 418.400000
1652 11643 1654 1 109.50000 418.400000
1652 11643 11153 1 109.50000 418.400000
1653 11643 1654 1 109.50000 418.400000
1653 11643 11153 1 109.50000 418.400000
1654 11643 11153 1 109.50000 418.400000
1656 11644 1657 1 109.50000 418.400000
1656 11644 1658 1 109.50000 418.400000
1656 11644 1659 1 109.50000 418.400000
1657 11644 1658 1 109.50000 418.400000
1657 11644 1659 1 109.50000 418.400000
1658 11644 1659 1 109.50000 418.400000
1660 11645 1661 1 109.50000 418.400000
1660 11645 1662 1 109.50000 418.400000
1660 11645 1663 1 109.50000 418.400000
1661 11645 1662 1 109.50000 418.400000
1661 11645 1663 1 109.50000 418.400000
1662 11645 1663 1 109.50000 418.400000
1664 11646 1665 1 109.50000 418.400000
1664 11646 1666 1 109.50000 418.400000
1664 11646 1667 1 109.50000 418.400000
1665 11646 1666 1 109.50000 418.400000
1665 11646 1667 1 109.50000 418.400000
1666 11646 1667 1 109.50000 418.400000
1668 11647 1669 1 109.50000 418.400000
1668 11647 1670 1 109.50000 418.400000
1668 11647 1671 1 109.50000 418.400000
1669 11647 1670 1 109.50000 418.400000
1669 11647 1671 1 109.50000 418.400000
1670 11647 1671 1 109.50000 418.400000
646 11648 1619 1 109.50000 418.400000
646 11648 1672 1 109.50000 418.400000
646 11648 1673 1 109.50000 418.400000
1619 11648 1672 1 109.50000 418.400000
1619 11648 1673 1 109.50000 418.400000
1672 11648 1673 1 109.50000 418.400000
1674 11649 1675 1 109.50000 418.400000
1674 11649 1676 1 109.50000 418.400000
1674 11649 1677 1 109.50000 418.400000
1675 11649 1676 1 109.50000 418.400000
1675 11649 1677 1 109.50000 418.400000
1676 11649 1677 1 109.50000 418.400000
153 11650 1678 1 109.50000 418.400000
153 11650 1679 1 109.50000 418.400000
153 11650 1680 1 109.50000 418.400000
1678 11650 1679 1 109.50000 418.400000
1678 11650 1680 1 109.50000 418.400000
1679 11650 1680 1 109.50000 418.400000
1344 11651 1681 1 109.50000 418.400000
1344 11651 1682 1 109.50000 418.400000
1344 11651 1683 1 109.50000 418.400000
1681 11651 1682 1 109.50000 418.400000
1681 11651 1683 1 109.50000 418.400000
1682 11651 1683 1 109.50000 418.400000
1692 11652 1693 1 109.50000 418.400000
1692 11652 1694 1 109.50000 418.400000
1692 11652 1695 1 109.50000 418.400000
1693 11652 1694 1 109.50000 418.400000
1693 11652 1695 1 109.50000 418.400000
1694 11652 1695 1 109.50000 418.400000
1697 11653 1698 1 109.50000 418.400000
1697 11653 1699 1 109.50000 418.400000
1697 11653 4081 1 109.50000 418.400000
1698 11653 1699 1 109.50000 418.400000
1698 11653 4081 1 109.50000 418.400000
1699 11653 4081 1 109.50000 418.400000
1700 11654 1701 1 109.50000 418.400000
1700 11654 1702 1 109.50000 418.400000
1700 11654 1703 1 109.50000 418.400000
1701 11654 1702 1 109.50000 418.400000
1701 11654 1703 1 109.50000 418.400000
1702 11654 1703 1 109.50000 418.400000
1704 11655 1705 1 109.50000 418.400000
1704 11655 1706 1 109.50000 418.400000
1704 11655 1707 1 109.50000 418.400000
1705 11655 1706 1 109.50000 418.400000
1705 11655 1707 1 109.50000 418.400000
1706 11655 1707 1 109.50000 418.400000
811 11656 1708 1 109.50000 418.400000
811 11656 1709 1 109.50000 418.400000
811 11656 1710 1 109.50000 418.400000
1708 11656 1709 1 109.50000 418.400000
1708 11656 1710 1 109.50000 418.400000
1709 11656 1710 1 109.50000 418.400000
250 11657 1711 1 109.50000 418.400000
250 11657 1713 1 109.50000 418.400000
250 11657 1714 1 109.50000 418.400000
1711 11657 1713 1 109.50000 418.400000
1711 11657 1714 1 109.50000 418.400000
1713 11657 1714 1 109.50000 418.400000
560 11658 1715 1 109.50000 418.400000
560 11658 1716 1 109.50000 418.400000
560 11658 1717 1 109.50000 418.400000
1715 11658 1716 1 109.50000 418.400000
1715 11658 1717 1 109.50000 418.400000
1716 11658 1717 1 109.50000 418.400000
1719 11659 1722 1 109.50000 418.400000
1719 11659 5451 1 109.50000 418.400000
1719 11659 5452 1 109.50000 418.400000
1722 11659 5451 1 109.50000 418.400000
1722 11659 5452 1 109.50000 418.400000
5451 11659 5452 1 109.50000 418.400000
1723 11660 1724 1 109.50000 418.400000
1723 11660 1725 1 109.50000 418.400000
1723 11660 1726 1 109.50000 418.400000
1724 11660 1725 1 109.50000 418.400000
1724 11660 1726 1 109.50000 418.400000
1725 11660 1726 1 109.50000 418.400000
973 11661 1728 1 109.50000 418.400000
973 11661 1729 1 109.50000 418.400000
973 11661 1730 1 109.50000 418.400000
1728 11661 1729 1 109.50000 418.400000
1728 11661 1730 1 109.50000 418.400000
1729 11661 1730 1 109.50000 418.400000
1731 11662 1732 1 109.50000 418.400000
1731 11662 1733 1 109.50000 418.400000
1731 11662 1734 1 109.50000 418.400000
1732 11662 1733 1 109.50000 418.400000
1732 11662 1734 1 109.50000 418.400000
1733 11662 1734 1 109.50000 418.400000
1738 11663 1739 1 109.50000 418.400000
1738 11663 8581 1 109.50000 418.400000
1738 11663 10835 1 109.50000 418.400000
1739 11663 8581 1 109.50000 418.400000
1739 11663 10835 1 109.50000 418.400000
8581 11663 10835 1 109.50000 418.400000
1743 11664 1744 1 109.50000 418.400000
1743 11664 1745 1 109.50000 418.400000
1743 11664 1746 1 109.50000 418.400000
1744 11664 1745 1 109.50000 418.400000
1744 11664 1746 1 109.50000 418.400000
1745 11664 1746 1 109.50000 418.400000
691 11665 692 1 109.50000 418.400000
691 11665 1747 1 109.50000 418.400000
691 11665 1748 1 109.50000 418.400000
692 11665 1747 1 109.50000 418.400000
692 11665 1748 1 109.50000 418.400000
1747 11665 1748 1 109.50000 418.400000
1754 11666 1755 1 109.50000 418.400000
1754 11666 1756 1 109.50000 418.400000
1754 11666 1757 1 109.50000 418.400000
1755 11666 1756 1 109.50000 418.400000
1755 11666 1757 1 109.50000 418.400000
1756 11666 1757 1 109.50000 418.400000
1299 11667 1761 1 109.50000 418.400000
1299 11667 1762 1 109.50000 418.400000
1299 11667 1763 1 109.50000 418.400000
1761 11667 1762 1 109.50000 418.400000
1761 11667 1763 1 109.50000 418.400000
1762 11667 1763 1 109.50000 418.400000
1764 11668 1765 1 109.50000 418.400000
1764 11668 1766 1 109.50000 418.400000
1764 11668 1767 1 109.50000 418.400000
1765 11668 1766 1 109.50000 418.400000
1765 11668 1767 1 109.50000 418.400000
1766 11668 1767 1 109.50000 418.400000
1768 11669 1769 1 109.50000 418.400000
1768 11669 1770 1 109.50000 418.400000
1768 11669 1771 1 109.50000 418.400000
1769 11669 1770 1 109.50000 418.400000
1769 11669 1771 1 109.50000 418.400000
1770 11669 1771 1 109.50000 418.400000
1772 11670 1773 1 109.50000 418.400000
1772 11670 1774 1 109.50000 418.400000
1772 11670 1775 1 109.50000 418.400000
1773 11670 1774 1 109.50000 418.400000
1773 11670 1775 1 109.50000 418.400000
1774 11670 1775 1 109.50000 418.400000
1601 11671 1778 1 109.50000 418.400000
1601 11671 1779 1 109.50000 418.400000
1601 11671 1780 1 109.50000 418.400000
1778 11671 1779 1 109.50000 418.400000
1778 11671 1780 1 109.50000 418.400000
1779 11671 1780 1 109.50000 418.400000
1781 11672 1782 1 109.50000 418.400000
1781 11672 1783 1 109.50000 418.400000
1781 11672 1784 1 109.50000 418.400000
1782 11672 1783 1 109.50000 418.400000
1782 11672 1784 1 109.50000 418.400000
1783 11672 1784 1 109.50000 418.400000
640 11673 1785 1 109.50000 418.400000
640 11673 1786 1 109.50000 418.400000
640 11673 1787 1 109.50000 418.400000
1785 11673 1786 1 109.50000 418.400000
1785 11673 1787 1 109.50000 418.400000
1786 11673 1787 1 109.50000 418.400000
1788 11674 1789 1 109.50000 418.400000
1788 11674 1790 1 109.50000 418.400000
1788 11674 1791 1 109.50000 418.400000
1789 11674 1790 1 109.50000 418.400000
1789 11674 1791 1 109.50000 418.400000
1790 11674 1791 1 109.50000 418.400000
1056 11675 1792 1 109.50000 418.400000
1056 11675 1793 1 109.50000 418.400000
1056 11675 1794 1 109.50000 418.400000
1792 11675 1793 1 109.50000 418.400000
1792 11675 1794 1 109.50000 418.400000
1793 11675 1794 1 109.50000 418.400000
1795 11676 1796 1 109.50000 418.400000
1795 11676 1797 1 109.50000 418.400000
1795 11676 1798 1 109.50000 418.400000
1796 11676 1797 1 109.50000 418.400000
1796 11676 1798 1 109.50000 418.400000
1797 11676 1798 1 109.50000 418.400000
1799 11677 1800 1 109.50000 418.400000
1799 11677 1801 1 109.50000 418.400000
1799 11677 1802 1 109.50000 418.400000
1800 11677 1801 1 109.50000 418.400000
1800 11677 1802 1 109.50000 418.400000
1801 11677 1802 1 109.50000 418.400000
1803 11678 1804 1 109.50000 418.400000
1803 11678 1805 1 109.50000 418.400000
1803 11678 1806 1 109.50000 418.400000
1804 11678 1805 1 109.50000 418.400000
1804 11678 1806 1 109.50000 418.400000
1805 11678 1806 1 109.50000 418.400000
1141 11679 1809 1 109.50000 418.400000
1141 11679 1810 1 109.50000 418.400000
1141 11679 1811 1 109.50000 418.400000
1809 11679 1810 1 109.50000 418.400000
1809 11679 1811 1 109.50000 418.400000
1810 11679 1811 1 109.50000 418.400000
1567 11680 1812 1 109.50000 418.400000
1567 11680 1813 1 109.50000 418.400000
1567 11680 1814 1 109.50000 418.400000
1812 11680 1813 1 109.50000 418.400000
1812 11680 1814 1 109.50000 418.400000
1813 11680 1814 1 109.50000 418.400000
1815 11681 1816 1 109.50000 418.400000
1815 11681 1817 1 109.50000 418.400000
1815 11681 1818 1 109.50000 418.400000
1816 11681 1817 1 109.50000 418.400000
1816 11681 1818 1 109.50000 418.400000
1817 11681 1818 1 109.50000 418.400000
59 11682 1819 1 109.50000 418.400000
59 11682 1820 1 109.50000 418.400000
59 11682 1821 1 109.50000 418.400000
1819 11682 1820 1 109.50000 418.400000
1819 11682 1821 1 109.50000 418.400000
1820 11682 1821 1 109.50000 418.400000
118 11683 1822 1 109.50000 418.400000
118 11683 1823 1 109.50000 418.400000
118 11683 1824 1 109.50000 418.400000
1822 11683 1823 1 109.50000 418.400000
1822 11683 1824 1 109.50000 418.400000
1823 11683 1824 1 109.50000 418.400000
1825 11684 1826 1 109.50000 418.400000
1825 11684 1827 1 109.50000 418.400000
1825 11684 1828 1 109.50000 418.400000
1826 11684 1827 1 109.50000 418.400000
1826 11684 1828 1 109.50000 418.400000
1827 11684 1828 1 109.50000 418.400000
1832 11685 1833 1 109.50000 418.400000
1832 11685 1834 1 109.50000 418.400000
1832 11685 1835 1 109.50000 418.400000
1833 11685 1834 1 109.50000 418.400000
1833 11685 1835 1 109.50000 418.400000
1834 11685 1835 1 109.50000 418.400000
116 11686 1836 1 109.50000 418.400000
116 11686 1837 1 109.50000 418.400000
116 11686 1838 1 109.50000 418.400000
1836 11686 1837 1 109.50000 418.400000
1836 11686 1838 1 109.50000 418.400000
1837 11686 1838 1 109.50000 418.400000
1839 11687 1840 1 109.50000 418.400000
1839 11687 1841 1 109.50000 418.400000
1839 11687 1842 1 109.50000 418.400000
1840 11687 1841 1 109.50000 418.400000
1840 11687 1842 1 109.50000 418.400000
1841 11687 1842 1 109.50000 418.400000
1843 11688 1844 1 109.50000 418.400000
1843 11688 1845 1 109.50000 418.400000
1843 11688 1846 1 109.50000 418.400000
1844 11688 1845 1 109.50000 418.400000
1844 11688 1846 1 109.50000 418.400000
1845 11688 1846 1 109.50000 418.400000
1847 11689 1848 1 109.50000 418.400000
1847 11689 1849 1 109.50000 418.400000
1847 11689 1850 1 109.50000 418.400000
1848 11689 1849 1 109.50000 418.400000
1848 11689 1850 1 109.50000 418.400000
1849 11689 1850 1 109.50000 418.400000
1851 11690 1852 1 109.50000 418.400000
1851 11690 1853 1 109.50000 418.400000
1851 11690 1854 1 109.50000 418.400000
1852 11690 1853 1 109.50000 418.400000
1852 11690 1854 1 109.50000 418.400000
1853 11690 1854 1 109.50000 418.400000
126 11691 1855 1 109.50000 418.400000
126 11691 1856 1 109.50000 418.400000
126 11691 1857 1 109.50000 418.400000
1855 11691 1856 1 109.50000 418.400000
1855 11691 1857 1 109.50000 418.400000
1856 11691 1857 1 109.50000 418.400000
1859 11692 1860 1 109.50000 418.400000
1859 11692 1861 1 109.50000 418.400000
1859 11692 1862 1 109.50000 418.400000
1860 11692 1861 1 109.50000 418.400000
1860 11692 1862 1 109.50000 418.400000
1861 11692 1862 1 109.50000 418.400000
1868 11693 1869 1 109.50000 418.400000
1868 11693 1870 1 109.50000 418.400000
1868 11693 1871 1 109.50000 418.400000
1869 11693 1870 1 109.50000 418.400000
1869 11693 1871 1 109.50000 418.400000
1870 11693 1871 1 109.50000 418.400000
1872 11694 1873 1 109.50000 418.400000
1872 11694 1874 1 109.50000 418.400000
1872 11694 1875 1 109.50000 418.400000
1873 11694 1874 1 109.50000 418.400000
1873 11694 1875 1 109.50000 418.400000
1874 11694 1875 1 109.50000 418.400000
1879 11695 1880 1 109.50000 418.400000
1879 11695 1881 1 109.50000 418.400000
1879 11695 1882 1 109.50000 418.400000
1880 11695 1881 1 109.50000 418.400000
1880 11695 1882 1 109.50000 418.400000
1881 11695 1882 1 109.50000 418.400000
128 11696 1883 1 109.50000 418.400000
128 11696 1884 1 109.50000 418.400000
128 11696 1885 1 109.50000 418.400000
1883 11696 1884 1 109.50000 418.400000
1883 11696 1885 1 109.50000 418.400000
1884 11696 1885 1 109.50000 418.400000
1247 11697 1886 1 109.50000 418.400000
1247 11697 1887 1 109.50000 418.400000
1247 11697 1888 1 109.50000 418.400000
1886 11697 1887 1 109.50000 418.400000
1886 11697 1888 1 109.50000 418.400000
1887 11697 1888 1 109.50000 418.400000
1892 11698 1893 1 109.50000 418.400000
1892 11698 1895 1 109.50000 418.400000
1892 11698 6178 1 109.50000 418.400000
1893 11698 1895 1 109.50000 418.400000
1893 11698 6178 1 109.50000 418.400000
1895 11698 6178 1 109.50000 418.400000
1898 11699 1899 1 109.50000 418.400000
1898 11699 1900 1 109.50000 418.400000
1898 11699 1901 1 109.50000 418.400000
1899 11699 1900 1 109.50000 418.400000
1899 11699 1901 1 109.50000 418.400000
1900 11699 1901 1 109.50000 418.400000
155 11700 1903 1 109.50000 418.400000
155 11700 1905 1 109.50000 418.400000
155 11700 5359 1 109.50000 418.400000
1903 11700 1905 1 109.50000 418.400000
1903 11700 5359 1 109.50000 418.400000
1905 11700 5359 1 109.50000 418.400000
1906 11701 1907 1 109.50000 418.400000
1906 11701 1908 1 109.50000 418.400000
1906 11701 1909 1 109.50000 418.400000
1907 11701 1908 1 109.50000 418.400000
1907 11701 1909 1 109.50000 418.400000
1908 11701 1909 1 109.50000 418.400000
1910 11702 1911 1 109.50000 418.400000
1910 11702 1913 1 109.50000 418.400000
1910 11702 8612 1 109.50000 418.400000
1911 11702 1913 1 109.50000 418.400000
1911 11702 8612 1 109.50000 418.400000
1913 11702 8612 1 109.50000 418.400000
1914 11703 1915 1 109.50000 418.400000
1914 11703 1916 1 109.50000 418.400000
1914 11703 1917 1 109.50000 418.400000
1915 11703 1916 1 109.50000 418.400000
1915 11703 1917 1 109.50000 418.400000
1916 11703 1917 1 109.50000 418.400000
396 11704 1416 1 109.50000 418.400000
396 11704 1918 1 109.50000 418.400000
396 11704 1919 1 109.50000 418.400000
1416 11704 1918 1 109.50000 418.400000
1416 11704 1919 1 109.50000 418.400000
1918 11704 1919 1 109.50000 418.400000
1920 11705 1921 1 109.50000 418.400000
1920 11705 1922 1 109.50000 418.400000
1920 11705 1923 1 109.50000 418.400000
1921 11705 1922 1 109.50000 418.400000
1921 11705 1923 1 109.50000 418.400000
1922 11705 1923 1 109.50000 418.400000
1925 11706 1926 1 109.50000 418.400000
1925 11706 7663 1 109.50000 418.400000
1925 11706 9010 1 109.50000 418.400000
1926 11706 7663 1 109.50000 418.400000
1926 11706 9010 1 109.50000 418.400000
7663 11706 9010 1 109.50000 418.400000
1929 11707 1931 1 109.50000 418.400000
1929 11707 5694 1 109.50000 418.400000
1929 11707 6737 1 109.50000 418.400000
1931 11707 5694 1 109.50000 418.400000
1931 11707 6737 1 109.50000 418.400000
5694 11707 6737 1 109.50000 418.400000
1932 11708 1933 1 109.50000 418.400000
1932 11708 1934 1 109.50000 418.400000
1932 11708 1935 1 109.50000 418.400000
1933 11708 1934 1 109.50000 418.400000
1933 11708 1935 1 109.50000 418.400000
1934 11708 1935 1 109.50000 418.400000
1364 11709 1936 1 109.50000 418.400000
1364 11709 1937 1 109.50000 418.400000
1364 11709 1938 1 109.50000 418.400000
1936 11709 1937 1 109.50000 418.400000
1936 11709 1938 1 109.50000 418.400000
1937 11709 1938 1 109.50000 418.400000
924 11710 1940 1 109.50000 418.400000
924 11710 1941 1 109.50000 418.400000
924 11710 1942 1 109.50000 418.400000
1940 11710 1941 1 109.50000 418.400000
1940 11710 1942 1 109.50000 418.400000
1941 11710 1942 1 109.50000 418.400000
1943 11711 1944 1 109.50000 418.400000
1943 11711 1945 1 109.50000 418.400000
1943 11711 5107 1 109.50000 418.400000
1944 11711 1945 1 109.50000 418.400000
1944 11711 5107 1 109.50000 418.400000
1945 11711 5107 1 109.50000 418.400000
375 11712 376 1 109.50000 418.400000
375 11712 378 1 109.50000 418.400000
375 11712 1947 1 109.50000 418.400000
376 11712 378 1 109.50000 418.400000
376 11712 1947 1 109.50000 418.400000
378 11712 1947 1 109.50000 418.400000
143 11713 1949 1 109.50000 418.400000
143 11713 1950 1 109.50000 418.400000
143 11713 1951 1 109.50000 418.400000
1949 11713 1950 1 109.50000 418.400000
1949 11713 1951 1 109.50000 418.400000
1950 11713 1951 1 109.50000 418.400000
1952 11714 1953 1 109.50000 418.400000
1952 11714 1954 1 109.50000 418.400000
1952 11714 1955 1 109.50000 418.400000
1953 11714 1954 1 109.50000 418.400000
1953 11714 1955 1 109.50000 418.400000
1954 11714 1955 1 109.50000 418.400000
1956 11715 1957 1 109.50000 418.400000
1956 11715 1958 1 109.50000 418.400000
1956 11715 1959 1 109.50000 418.400000
1957 11715 1958 1 109.50000 418.400000
1957 11715 1959 1 109.50000 418.400000
1958 11715 1959 1 109.50000 418.400000
1960 11716 1961 1 109.50000 418.400000
1960 11716 1962 1 109.50000 418.400000
1960 11716 1963 1 109.50000 418.400000
1961 11716 1962 1 109.50000 418.400000
1961 11716 1963 1 109.50000 418.400000
1962 11716 1963 1 109.50000 418.400000
1964 11717 1965 1 109.50000 418.400000
1964 11717 1966 1 109.50000 418.400000
1964 11717 1967 1 109.50000 418.400000
1965 11717 1966 1 109.50000 418.400000
1965 11717 1967 1 109.50000 418.400000
1966 11717 1967 1 109.50000 418.400000
677 11718 1968 1 109.50000 418.400000
677 11718 1969 1 109.50000 418.400000
677 11718 1970 1 109.50000 418.400000
1968 11718 1969 1 109.50000 418.400000
1968 11718 1970 1 109.50000 418.400000
1969 11718 1970 1 109.50000 418.400000
1971 11719 1972 1 109.50000 418.400000
1971 11719 1973 1 109.50000 418.400000
1971 11719 9727 1 109.50000 418.400000
1972 11719 1973 1 109.50000 418.400000
1972 11719 9727 1 109.50000 418.400000
1973 11719 9727 1 109.50000 418.400000
1976 11720 1977 1 109.50000 418.400000
1976 11720 1978 1 109.50000 418.400000
1976 11720 7177 1 109.50000 418.400000
1977 11720 1978 1 109.50000 418.400000
1977 11720 7177 1 109.50000 418.400000
1978 11720 7177 1 109.50000 418.400000
1979 11721 1980 1 109.50000 418.400000
1979 11721 1981 1 109.50000 418.400000
1979 11721 1982 1 109.50000 418.400000
1980 11721 1981 1 109.50000 418.400000
1980 11721 1982 1 109.50000 418.400000
1981 11721 1982 1 109.50000 418.400000
1983 11722 1984 1 109.50000 418.400000
1983 11722 1985 1 109.50000 418.400000
1983 11722 1986 1 109.50000 418.400000
1984 11722 1985 1 109.50000 418.400000
1984 11722 1986 1 109.50000 418.400000
1985 11722 1986 1 109.50000 418.400000
1987 11723 1988 1 109.50000 418.400000
1987 11723 1990 1 109.50000 418.400000
1987 11723 10974 1 109.50000 418.400000
1988 11723 1990 1 109.50000 418.400000
1988 11723 10974 1 109.50000 418.400000
1990 11723 10974 1 109.50000 418.400000
1991 11724 1992 1 109.50000 418.400000
1991 11724 1993 1 109.50000 418.400000
1991 11724 1994 1 109.50000 418.400000
1992 11724 1993 1 109.50000 418.400000
1992 11724 1994 1 109.50000 418.400000
1993 11724 1994 1 109.50000 418.400000
1995 11725 1996 1 109.50000 418.400000
1995 11725 1997 1 109.50000 418.400000
1995 11725 1998 1 109.50000 418.400000
1996 11725 1997 1 109.50000 418.400000
1996 11725 1998 1 109.50000 418.400000
1997 11725 1998 1 109.50000 418.400000
1999 11726 2000 1 109.50000 418.400000
1999 11726 2001 1 109.50000 418.400000
1999 11726 2002 1 109.50000 418.400000
2000 11726 2001 1 109.50000 418.400000
2000 11726 2002 1 109.50000 418.400000
2001 11726 2002 1 109.50000 418.400000
501 11727 2003 1 109.50000 418.400000
501 11727 2004 1 109.50000 418.400000
501 11727 2005 1 109.50000 418.400000
2003 11727 2004 1 109.50000 418.400000
2003 11727 2005 1 109.50000 418.400000
2004 11727 2005 1 109.50000 418.400000
1873 11728 2006 1 109.50000 418.400000
1873 11728 2007 1 109.50000 418.400000
1873 11728 2008 1 109.50000 418.400000
2006 11728 2007 1 109.50000 418.400000
2006 11728 2008 1 109.50000 418.400000
2007 11728 2008 1 109.50000 418.400000
2010 11729 2011 1 109.50000 418.400000
2010 11729 2012 1 109.50000 418.400000
2010 11729 2013 1 109.50000 418.400000
2011 11729 2012 1 109.50000 418.400000
2011 11729 2013 1 109.50000 418.400000
2012 11729 2013 1 109.50000 418.400000
2014 11730 2015 1 109.50000 418.400000
2014 11730 2016 1 109.50000 418.400000
2014 11730 2017 1 109.50000 418.400000
2015 11730 2016 1 109.50000 418.400000
2015 11730 2017 1 109.50000 418.400000
2016 11730 2017 1 109.50000 418.400000
1343 11731 2020 1 109.50000 418.400000
1343 11731 2021 1 109.50000 418.400000
1343 11731 2022 1 109.50000 418.400000
2020 11731 2021 1 109.50000 418.400000
2020 11731 2022 1 109.50000 418.400000
2021 11731 2022 1 109.50000 418.400000
2023 11732 2024 1 109.50000 418.400000
2023 11732 2025 1 109.50000 418.400000
2023 11732 2026 1 109.50000 418.400000
2024 11732 2025 1 109.50000 418.400000
2024 11732 2026 1 109.50000 418.400000
2025 11732 2026 1 109.50000 418.400000
2029 11733 2030 1 109.50000 418.400000
2029 11733 2031 1 109.50000 418.400000
2029 11733 2032 1 109.50000 418.400000
2030 11733 2031 1 109.50000 418.400000
2030 11733 2032 1 109.50000 418.400000
2031 11733 2032 1 109.50000 418.400000
2033 11734 2034 1 109.50000 418.400000
2033 11734 2035 1 109.50000 418.400000
2033 11734 2036 1 109.50000 418.400000
2034 11734 2035 1 109.50000 418.400000
2034 11734 2036 1 109.50000 418.400000
2035 11734 2036 1 109.50000 418.400000
2037 11735 2038 1 109.50000 418.400000
2037 11735 2039 1 109.50000 418.400000
2037 11735 2040 1 109.50000 418.400000
2038 11735 2039 1 109.50000 418.400000
2038 11735 2040 1 109.50000 418.400000
2039 11735 2040 1 109.50000 418.400000
2049 11736 2050 1 109.50000 418.400000
2049 11736 2051 1 109.50000 418.400000
2049 11736 2052 1 109.50000 418.400000
2050 11736 2051 1 109.50000 418.400000
2050 11736 2052 1 109.50000 418.400000
2051 11736 2052 1 109.50000 418.400000
290 11737 293 1 109.50000 418.400000
290 11737 2053 1 109.50000 418.400000
290 11737 2054 1 109.50000 418.400000
293 11737 2053 1 109.50000 418.400000
293 11737 2054 1 109.50000 418.400000
2053 11737 2054 1 109.50000 418.400000
2055 11738 2056 1 109.50000 418.400000
2055 11738 2057 1 109.50000 418.400000
2055 11738 2058 1 109.50000 418.400000
2056 11738 2057 1 109.50000 418.400000
2056 11738 2058 1 109.50000 418.400000
2057 11738 2058 1 109.50000 418.400000
393 11739 2059 1 109.50000 418.400000
393 11739 2060 1 109.50000 418.400000
393 11739 2061 1 109.50000 418.400000
2059 11739 2060 1 109.50000 418.400000
2059 11739 2061 1 109.50000 418.400000
2060 11739 2061 1 109.50000 418.400000
2062 11740 2063 1 109.50000 418.400000
2062 11740 2064 1 109.50000 418.400000
2062 11740 2065 1 109.50000 418.400000
2063 11740 2064 1 109.50000 418.400000
2063 11740 2065 1 109.50000 418.400000
2064 11740 2065 1 109.50000 418.400000
1813 11741 2067 1 109.50000 418.400000
1813 11741 2068 1 109.50000 418.400000
1813 11741 2069 1 109.50000 418.400000
2067 11741 2068 1 109.50000 418.400000
2067 11741 2069 1 109.50000 418.400000
2068 11741 2069 1 109.50000 418.400000
971 11742 2053 1 109.50000 418.400000
971 11742 2070 1 109.50000 418.400000
971 11742 2071 1 109.50000 418.400000
2053 11742 2070 1 109.50000 418.400000
2053 11742 2071 1 109.50000 418.400000
2070 11742 2071 1 109.50000 418.400000
806 11743 809 1 109.50000 418.400000
806 11743 2072 1 109.50000 418.400000
806 11743 2073 1 109.50000 418.400000
809 11743 2072 1 109.50000 418.400000
809 11743 2073 1 109.50000 418.400000
2072 11743 2073 1 109.50000 418.400000
2075 11744 2076 1 109.50000 418.400000
2075 11744 2077 1 109.50000 418.400000
2075 11744 2078 1 109.50000 418.400000
2076 11744 2077 1 109.50000 418.400000
2076 11744 2078 1 109.50000 418.400000
2077 11744 2078 1 109.50000 418.400000
456 11745 2079 1 109.50000 418.400000
456 11745 2080 1 109.50000 418.400000
456 11745 2081 1 109.50000 418.400000
2079 11745 2080 1 109.50000 418.400000
2079 11745 2081 1 109.50000 418.400000
2080 11745 2081 1 109.50000 418.400000
254 11746 1979 1 109.50000 418.400000
254 11746 2082 1 109.50000 418.400000
254 11746 2083 1 109.50000 418.400000
1979 11746 2082 1 109.50000 418.400000
1979 11746 2083 1 109.50000 418.400000
2082 11746 2083 1 109.50000 418.400000
2084 11747 2085 1 109.50000 418.400000
2084 11747 2086 1 109.50000 418.400000
2084 11747 2087 1 109.50000 418.400000
2085 11747 2086 1 109.50000 418.400000
2085 11747 2087 1 109.50000 418.400000
2086 11747 2087 1 109.50000 418.400000
2088 11748 2089 1 109.50000 418.400000
2088 11748 2090 1 109.50000 418.400000
2088 11748 2091 1 109.50000 418.400000
2089 11748 2090 1 109.50000 418.400000
2089 11748 2091 1 109.50000 418.400000
2090 11748 2091 1 109.50000 418.400000
2092 11749 2093 1 109.50000 418.400000
2092 11749 2094 1 109.50000 418.400000
2092 11749 2095 1 109.50000 418.400000
2093 11749 2094 1 109.50000 418.400000
2093 11749 2095 1 109.50000 418.400000
2094 11749 2095 1 109.50000 418.400000
854 11750 2098 1 109.50000 418.400000
854 11750 2100 1 109.50000 418.400000
854 11750 7646 1 109.50000 418.400000
2098 11750 2100 1 109.50000 418.400000
2098 11750 7646 1 109.50000 418.400000
2100 11750 7646 1 109.50000 418.400000
1854 11751 2101 1 109.50000 418.400000
1854 11751 2102 1 109.50000 418.400000
1854 11751 2103 1 109.50000 418.400000
2101 11751 2102 1 109.50000 418.400000
2101 11751 2103 1 109.50000 418.400000
2102 11751 2103 1 109.50000 418.400000
1016 11752 2104 1 109.50000 418.400000
1016 11752 2105 1 109.50000 418.400000
1016 11752 2106 1 109.50000 418.400000
2104 11752 2105 1 109.50000 418.400000
2104 11752 2106 1 109.50000 418.400000
2105 11752 2106 1 109.50000 418.400000
2109 11753 2110 1 109.50000 418.400000
2109 11753 2111 1 109.50000 418.400000
2109 11753 2112 1 109.50000 418.400000
2110 11753 2111 1 109.50000 418.400000
2110 11753 2112 1 109.50000 418.400000
2111 11753 2112 1 109.50000 418.400000
2113 11754 2114 1 109.50000 418.400000
2113 11754 2115 1 109.50000 418.400000
2113 11754 2116 1 109.50000 418.400000
2114 11754 2115 1 109.50000 418.400000
2114 11754 2116 1 109.50000 418.400000
2115 11754 2116 1 109.50000 418.400000
2118 11755 2119 1 109.50000 418.400000
2118 11755 2120 1 109.50000 418.400000
2118 11755 3655 1 109.50000 418.400000
2119 11755 2120 1 109.50000 418.400000
2119 11755 3655 1 109.50000 418.400000
2120 11755 3655 1 109.50000 418.400000
2121 11756 2122 1 109.50000 418.400000
2121 11756 2123 1 109.50000 418.400000
2121 11756 2124 1 109.50000 418.400000
2122 11756 2123 1 109.50000 418.400000
2122 11756 2124 1 109.50000 418.400000
2123 11756 2124 1 109.50000 418.400000
528 11757 1346 1 109.50000 418.400000
528 11757 2125 1 109.50000 418.400000
528 11757 2126 1 109.50000 418.400000
1346 11757 2125 1 109.50000 418.400000
1346 11757 2126 1 109.50000 418.400000
2125 11757 2126 1 109.50000 418.400000
2127 11758 2128 1 109.50000 418.400000
2127 11758 2129 1 109.50000 418.400000
2127 11758 2130 1 109.50000 418.400000
2128 11758 2129 1 109.50000 418.400000
2128 11758 2130 1 109.50000 418.400000
2129 11758 2130 1 109.50000 418.400000
1195 11759 1940 1 109.50000 418.400000
1195 11759 2131 1 109.50000 418.400000
1195 11759 2132 1 109.50000 418.400000
1940 11759 2131 1 109.50000 418.400000
1940 11759 2132 1 109.50000 418.400000
2131 11759 2132 1 109.50000 418.400000
2133 11760 2134 1 109.50000 418.400000
2133 11760 2135 1 109.50000 418.400000
2133 11760 2136 1 109.50000 418.400000
2134 11760 2135 1 109.50000 418.400000
2134 11760 2136 1 109.50000 418.400000
2135 11760 2136 1 109.50000 418.400000
985 11761 2137 1 109.50000 418.400000
985 11761 2138 1 109.50000 418.400000
985 11761 2139 1 109.50000 418.400000
2137 11761 2138 1 109.50000 418.400000
2137 11761 2139 1 109.50000 418.400000
2138 11761 2139 1 109.50000 418.400000
2140 11762 2141 1 109.50000 418.400000
2140 11762 2142 1 109.50000 418.400000
2140 11762 2143 1 109.50000 418.400000
2141 11762 2142 1 109.50000 418.400000
2141 11762 2143 1 109.50000 418.400000
2142 11762 2143 1 109.50000 418.400000
2144 11763 2145 1 109.50000 418.400000
2144 11763 2146 1 109.50000 418.400000
2144 11763 2147 1 109.50000 418.400000
2145 11763 2146 1 109.50000 418.400000
2145 11763 2147 1 109.50000 418.400000
2146 11763 2147 1 109.50000 418.400000
1625 11764 2149 1 109.50000 418.400000
1625 11764 2150 1 109.50000 418.400000
1625 11764 2151 1 109.50000 418.400000
2149 11764 2150 1 109.50000 418.400000
2149 11764 2151 1 109.50000 418.400000
2150 11764 2151 1 109.50000 418.400000
2152 11765 2153 1 109.50000 418.400000
2152 11765 2154 1 109.50000 418.400000
2152 11765 2155 1 109.50000 418.400000
2153 11765 2154 1 109.50000 418.400000
2153 11765 2155 1 109.50000 418.400000
2154 11765 2155 1 109.50000 418.400000
927 11766 2156 1 109.50000 418.400000
927 11766 2157 1 109.50000 418.400000
927 11766 2158 1 109.50000 418.400000
2156 11766 2157 1 109.50000 418.400000
2156 11766 2158 1 109.50000 418.400000
2157 11766 2158 1 109.50000 418.400000
2167 11767 2168 1 109.50000 418.400000
2167 11767 2169 1 109.50000 418.400000
2167 11767 2170 1 109.50000 418.400000
2168 11767 2169 1 109.50000 418.400000
2168 11767 2170 1 109.50000 418.400000
2169 11767 2170 1 109.50000 418.400000
2171 11768 2172 1 109.50000 418.400000
2171 11768 2173 1 109.50000 418.400000
2171 11768 2174 1 109.50000 418.400000
2172 11768 2173 1 109.50000 418.400000
2172 11768 2174 1 109.50000 418.400000
2173 11768 2174 1 109.50000 418.400000
2175 11769 2177 1 109.50000 418.400000
2175 11769 2178 1 109.50000 418.400000
2175 11769 5138 1 109.50000 418.400000
2177 11769 2178 1 109.50000 418.400000
2177 11769 5138 1 109.50000 418.400000
2178 11769 5138 1 109.50000 418.400000
656 11770 2179 1 109.50000 418.400000
656 11770 2180 1 109.50000 418.400000
656 11770 9174 1 109.50000 418.400000
2179 11770 2180 1 109.50000 418.400000
2179 11770 9174 1 109.50000 418.400000
2180 11770 9174 1 109.50000 418.400000
2101 11771 2181 1 109.50000 418.400000
2101 11771 2182 1 109.50000 418.400000
2101 11771 2183 1 109.50000 418.400000
2181 11771 2182 1 109.50000 418.400000
2181 11771 2183 1 109.50000 418.400000
2182 11771 2183 1 109.50000 418.400000
2184 11772 2185 1 109.50000 418.400000
2184 11772 2186 1 109.50000 418.400000
2184 11772 2187 1 109.50000 418.400000
2185 11772 2186 1 109.50000 418.400000
2185 11772 2187 1 109.50000 418.400000
2186 11772 2187 1 109.50000 418.400000
2188 11773 2189 1 109.50000 418.400000
2188 11773 2190 1 109.50000 418.400000
2188 11773 2191 1 109.50000 418.400000
2189 11773 2190 1 109.50000 418.400000
2189 11773 2191 1 109.50000 418.400000
2190 11773 2191 1 109.50000 418.400000
2192 11774 2193 1 109.50000 418.400000
2192 11774 2195 1 109.50000 418.400000
2192 11774 10290 1 109.50000 418.400000
2193 11774 2195 1 109.50000 418.400000
2193 11774 10290 1 109.50000 418.400000
2195 11774 10290 1 109.50000 418.400000
2196 11775 2197 1 109.50000 418.400000
2196 11775 2198 1 109.50000 418.400000
2196 11775 2199 1 109.50000 418.400000
2197 11775 2198 1 109.50000 418.400000
2197 11775 2199 1 109.50000 418.400000
2198 11775 2199 1 109.50000 418.400000
2202 11776 2203 1 109.50000 418.400000
2202 11776 2204 1 109.50000 418.400000
2202 11776 2205 1 109.50000 418.400000
2203 11776 2204 1 109.50000 418.400000
2203 11776 2205 1 109.50000 418.400000
2204 11776 2205 1 109.50000 418.400000
1988 11777 2206 1 109.50000 418.400000
1988 11777 2207 1 109.50000 418.400000
1988 11777 2208 1 109.50000 418.400000
2206 11777 2207 1 109.50000 418.400000
2206 11777 2208 1 109.50000 418.400000
2207 11777 2208 1 109.50000 418.400000
1698 11778 2209 1 109.50000 418.400000
1698 11778 2210 1 109.50000 418.400000
1698 11778 2211 1 109.50000 418.400000
2209 11778 2210 1 109.50000 418.400000
2209 11778 2211 1 109.50000 418.400000
2210 11778 2211 1 109.50000 418.400000
2212 11779 2213 1 109.50000 418.400000
2212 11779 2214 1 109.50000 418.400000
2212 11779 2215 1 109.50000 418.400000
2213 11779 2214 1 109.50000 418.400000
2213 11779 2215 1 109.50000 418.400000
2214 11779 2215 1 109.50000 418.400000
450 11780 2216 1 109.50000 418.400000
450 11780 2217 1 109.50000 418.400000
450 11780 11196 1 109.50000 418.400000
2216 11780 2217 1 109.50000 418.400000
2216 11780 11196 1 109.50000 418.400000
2217 11780 11196 1 109.50000 418.400000
2218 11781 2219 1 109.50000 418.400000
2218 11781 2220 1 109.50000 418.400000
2218 11781 2221 1 109.50000 418.400000
2219 11781 2220 1 109.50000 418.400000
2219 11781 2221 1 109.50000 418.400000
2220 11781 2221 1 109.50000 418.400000
2222 11782 2223 1 109.50000 418.400000
2222 11782 2224 1 109.50000 418.400000
2222 11782 2225 1 109.50000 418.400000
2223 11782 2224 1 109.50000 418.400000
2223 11782 2225 1 109.50000 418.400000
2224 11782 2225 1 109.50000 418.400000
2226 11783 2227 1 109.50000 418.400000
2226 11783 2228 1 109.50000 418.400000
2226 11783 2229 1 109.50000 418.400000
2227 11783 2228 1 109.50000 418.400000
2227 11783 2229 1 109.50000 418.400000
2228 11783 2229 1 109.50000 418.400000
2208 11784 2230 1 109.50000 418.400000
2208 11784 2231 1 109.50000 418.400000
2208 11784 2232 1 109.50000 418.400000
2230 11784 2231 1 109.50000 418.400000
2230 11784 2232 1 109.50000 418.400000
2231 11784 2232 1 109.50000 418.400000
2235 11785 2236 1 109.50000 418.400000
2235 11785 2237 1 109.50000 418.400000
2235 11785 2238 1 109.50000 418.400000
2236 11785 2237 1 109.50000 418.400000
2236 11785 2238 1 109.50000 418.400000
2237 11785 2238 1 109.50000 418.400000
1654 11786 2239 1 109.50000 418.400000
1654 11786 2240 1 109.50000 418.400000
1654 11786 2241 1 109.50000 418.400000
2239 11786 2240 1 109.50000 418.400000
2239 11786 2241 1 109.50000 418.400000
2240 11786 2241 1 109.50000 418.400000
2242 11787 2243 1 109.50000 418.400000
2242 11787 2244 1 109.50000 418.400000
2242 11787 2245 1 109.50000 418.400000
2243 11787 2244 1 109.50000 418.400000
2243 11787 2245 1 109.50000 418.400000
2244 11787 2245 1 109.50000 418.400000
2246 11788 2247 1 109.50000 418.400000
2246 11788 2248 1 109.50000 418.400000
2246 11788 2249 1 109.50000 418.400000
2247 11788 2248 1 109.50000 418.400000
2247 11788 2249 1 109.50000 418.400000
2248 11788 2249 1 109.50000 418.400000
1501 11789 2250 1 109.50000 418.400000
1501 11789 2251 1 109.50000 418.400000
1501 11789 2252 1 109.50000 418.400000
2250 11789 2251 1 109.50000 418.400000
2250 11789 2252 1 109.50000 418.400000
2251 11789 2252 1 109.50000 418.400000
2253 11790 2254 1 109.50000 418.400000
2253 11790 2255 1 109.50000 418.400000
2253 11790 2256 1 109.50000 418.400000
2254 11790 2255 1 109.50000 418.400000
2254 11790 2256 1 109.50000 418.400000
2255 11790 2256 1 109.50000 418.400000
2257 11791 2258 1 109.50000 418.400000
2257 11791 2259 1 109.50000 418.400000
2257 11791 2260 1 109.50000 418.400000
2258 11791 2259 1 109.50000 418.400000
2258 11791 2260 1 109.50000 418.400000
2259 11791 2260 1 109.50000 418.400000
2261 11792 2262 1 109.50000 418.400000
2261 11792 2263 1 109.50000 418.400000
2261 11792 2264 1 109.50000 418.400000
2262 11792 2263 1 109.50000 418.400000
2262 11792 2264 1 109.50000 418.400000
2263 11792 2264 1 109.50000 418.400000
2265 11793 2266 1 109.50000 418.400000
2265 11793 2267 1 109.50000 418.400000
2265 11793 2268 1 109.50000 418.400000
2266 11793 2267 1 109.50000 418.400000
2266 11793 2268 1 109.50000 418.400000
2267 11793 2268 1 109.50000 418.400000
2270 11794 2271 1 109.50000 418.400000
2270 11794 2272 1 109.50000 418.400000
2270 11794 10917 1 109.50000 418.400000
2271 11794 2272 1 109.50000 418.400000
2271 11794 10917 1 109.50000 418.400000
2272 11794 10917 1 109.50000 418.400000
2070 11795 2273 1 109.50000 418.400000
2070 11795 2274 1 109.50000 418.400000
2070 11795 2275 1 109.50000 418.400000
2273 11795 2274 1 109.50000 418.400000
2273 11795 2275 1 109.50000 418.400000
2274 11795 2275 1 109.50000 418.400000
2276 11796 2277 1 109.50000 418.400000
2276 11796 2278 1 109.50000 418.400000
2276 11796 2279 1 109.50000 418.400000
2277 11796 2278 1 109.50000 418.400000
2277 11796 2279 1 109.50000 418.400000
2278 11796 2279 1 109.50000 418.400000
2280 11797 2281 1 109.50000 418.400000
2280 11797 2282 1 109.50000 418.400000
2280 11797 2283 1 109.50000 418.400000
2281 11797 2282 1 109.50000 418.400000
2281 11797 2283 1 109.50000 418.400000
2282 11797 2283 1 109.50000 418.400000
2284 11798 2285 1 109.50000 418.400000
2284 11798 2286 1 109.50000 418.400000
2284 11798 2287 1 109.50000 418.400000
2285 11798 2286 1 109.50000 418.400000
2285 11798 2287 1 109.50000 418.400000
2286 11798 2287 1 109.50000 418.400000
1158 11799 2288 1 109.50000 418.400000
1158 11799 2289 1 109.50000 418.400000
1158 11799 2290 1 109.50000 418.400000
2288 11799 2289 1 109.50000 418.400000
2288 11799 2290 1 109.50000 418.400000
2289 11799 2290 1 109.50000 418.400000
2291 11800 2292 1 109.50000 418.400000
2291 11800 2293 1 109.50000 418.400000
2291 11800 2294 1 109.50000 418.400000
2292 11800 2293 1 109.50000 418.400000
2292 11800 2294 1 109.50000 418.400000
2293 11800 2294 1 109.50000 418.400000
2300 11801 2301 1 109.50000 418.400000
2300 11801 2302 1 109.50000 418.400000
2300 11801 2303 1 109.50000 418.400000
2301 11801 2302 1 109.50000 418.400000
2301 11801 2303 1 109.50000 418.400000
2302 11801 2303 1 109.50000 418.400000
2305 11802 2306 1 109.50000 418.400000
2305 11802 2307 1 109.50000 418.400000
2305 11802 2308 1 109.50000 418.400000
2306 11802 2307 1 109.50000 418.400000
2306 11802 2308 1 109.50000 418.400000
2307 11802 2308 1 109.50000 418.400000
2309 11803 2310 1 109.50000 418.400000
2309 11803 2311 1 109.50000 418.400000
2309 11803 2312 1 109.50000 418.400000
2310 11803 2311 1 109.50000 418.400000
2310 11803 2312 1 109.50000 418.400000
2311 11803 2312 1 109.50000 418.400000
2313 11804 2314 1 109.50000 418.400000
2313 11804 2315 1 109.50000 418.400000
2313 11804 2316 1 109.50000 418.400000
2314 11804 2315 1 109.50000 418.400000
2314 11804 2316 1 109.50000 418.400000
2315 11804 2316 1 109.50000 418.400000
2317 11805 2318 1 109.50000 418.400000
2317 11805 2319 1 109.50000 418.400000
2317 11805 2320 1 109.50000 418.400000
2318 11805 2319 1 109.50000 418.400000
2318 11805 2320 1 109.50000 418.400000
2319 11805 2320 1 109.50000 418.400000
1548 11806 2321 1 109.50000 418.400000
1548 11806 2322 1 109.50000 418.400000
1548 11806 2323 1 109.50000 418.400000
2321 11806 2322 1 109.50000 418.400000
2321 11806 2323 1 109.50000 418.400000
2322 11806 2323 1 109.50000 418.400000
2326 11807 2327 1 109.50000 418.400000
2326 11807 2328 1 109.50000 418.400000
2326 11807 2329 1 109.50000 418.400000
2327 11807 2328 1 109.50000 418.400000
2327 11807 2329 1 109.50000 418.400000
2328 11807 2329 1 109.50000 418.400000
581 11808 2330 1 109.50000 418.400000
581 11808 2331 1 109.50000 418.400000
581 11808 5410 1 109.50000 418.400000
2330 11808 2331 1 109.50000 418.400000
2330 11808 5410 1 109.50000 418.400000
2331 11808 5410 1 109.50000 418.400000
2333 11809 2334 1 109.50000 418.400000
2333 11809 2335 1 109.50000 418.400000
2333 11809 2336 1 109.50000 418.400000
2334 11809 2335 1 109.50000 418.400000
2334 11809 2336 1 109.50000 418.400000
2335 11809 2336 1 109.50000 418.400000
2338 11810 2340 1 109.50000 418.400000
2338 11810 6853 1 109.50000 418.400000
2338 11810 10496 1 109.50000 418.400000
2340 11810 6853 1 109.50000 418.400000
2340 11810 10496 1 109.50000 418.400000
6853 11810 10496 1 109.50000 418.400000
1128 11811 2341 1 109.50000 418.400000
1128 11811 2343 1 109.50000 418.400000
1128 11811 4533 1 109.50000 418.400000
2341 11811 2343 1 109.50000 418.400000
2341 11811 4533 1 109.50000 418.400000
2343 11811 4533 1 109.50000 418.400000
2344 11812 2345 1 109.50000 418.400000
2344 11812 2346 1 109.50000 418.400000
2344 11812 2347 1 109.50000 418.400000
2345 11812 2346 1 109.50000 418.400000
2345 11812 2347 1 109.50000 418.400000
2346 11812 2347 1 109.50000 418.400000
2133 11813 2348 1 109.50000 418.400000
2133 11813 2349 1 109.50000 418.400000
2133 11813 9098 1 109.50000 418.400000
2348 11813 2349 1 109.50000 418.400000
2348 11813 9098 1 109.50000 418.400000
2349 11813 9098 1 109.50000 418.400000
1930 11814 2350 1 109.50000 418.400000
1930 11814 2351 1 109.50000 418.400000
1930 11814 2353 1 109.50000 418.400000
2350 11814 2351 1 109.50000 418.400000
2350 11814 2353 1 109.50000 418.400000
2351 11814 2353 1 109.50000 418.400000
2354 11815 2355 1 109.50000 418.400000
2354 11815 2356 1 109.50000 418.400000
2354 11815 2357 1 109.50000 418.400000
2355 11815 2356 1 109.50000 418.400000
2355 11815 2357 1 109.50000 418.400000
2356 11815 2357 1 109.50000 418.400000
2358 11816 2359 1 109.50000 418.400000
2358 11816 2360 1 109.50000 418.400000
2358 11816 2361 1 109.50000 418.400000
2359 11816 2360 1 109.50000 418.400000
2359 11816 2361 1 109.50000 418.400000
2360 11816 2361 1 109.50000 418.400000
2362 11817 2363 1 109.50000 418.400000
2362 11817 2364 1 109.50000 418.400000
2362 11817 2365 1 109.50000 418.400000
2363 11817 2364 1 109.50000 418.400000
2363 11817 2365 1 109.50000 418.400000
2364 11817 2365 1 109.50000 418.400000
2366 11818 2367 1 109.50000 418.400000
2366 11818 2368 1 109.50000 418.400000
2366 11818 2369 1 109.50000 418.400000
2367 11818 2368 1 109.50000 418.400000
2367 11818 2369 1 109.50000 418.400000
2368 11818 2369 1 109.50000 418.400000
2370 11819 2371 1 109.50000 418.400000
2370 11819 2372 1 109.50000 418.400000
2370 11819 2373 1 109.50000 418.400000
2371 11819 2372 1 109.50000 418.400000
2371 11819 2373 1 109.50000 418.400000
2372 11819 2373 1 109.50000 418.400000
2374 11820 2375 1 109.50000 418.400000
2374 11820 2376 1 109.50000 418.400000
2374 11820 2377 1 109.50000 418.400000
2375 11820 2376 1 109.50000 418.400000
2375 11820 2377 1 109.50000 418.400000
2376 11820 2377 1 109.50000 418.400000
2378 11821 2379 1 109.50000 418.400000
2378 11821 2380 1 109.50000 418.400000
2378 11821 2381 1 109.50000 418.400000
2379 11821 2380 1 109.50000 418.400000
2379 11821 2381 1 109.50000 418.400000
2380 11821 2381 1 109.50000 418.400000
2382 11822 2383 1 109.50000 418.400000
2382 11822 2384 1 109.50000 418.400000
2382 11822 2385 1 109.50000 418.400000
2383 11822 2384 1 109.50000 418.400000
2383 11822 2385 1 109.50000 418.400000
2384 11822 2385 1 109.50000 418.400000
2386 11823 2387 1 109.50000 418.400000
2386 11823 2388 1 109.50000 418.400000
2386 11823 2389 1 109.50000 418.400000
2387 11823 2388 1 109.50000 418.400000
2387 11823 2389 1 109.50000 418.400000
2388 11823 2389 1 109.50000 418.400000
2390 11824 2391 1 109.50000 418.400000
2390 11824 2392 1 109.50000 418.400000
2390 11824 2393 1 109.50000 418.400000
2391 11824 2392 1 109.50000 418.400000
2391 11824 2393 1 109.50000 418.400000
2392 11824 2393 1 109.50000 418.400000
2378 11825 2394 1 109.50000 418.400000
2378 11825 2395 1 109.50000 418.400000
2378 11825 2396 1 109.50000 418.400000
2394 11825 2395 1 109.50000 418.400000
2394 11825 2396 1 109.50000 418.400000
2395 11825 2396 1 109.50000 418.400000
2398 11826 2399 1 109.50000 418.400000
2398 11826 2400 1 109.50000 418.400000
2398 11826 4067 1 109.50000 418.400000
2399 11826 2400 1 109.50000 418.400000
2399 11826 4067 1 109.50000 418.400000
2400 11826 4067 1 109.50000 418.400000
2402 11827 2403 1 109.50000 418.400000
2402 11827 2404 1 109.50000 418.400000
2402 11827 2405 1 109.50000 418.400000
2403 11827 2404 1 109.50000 418.400000
2403 11827 2405 1 109.50000 418.400000
2404 11827 2405 1 109.50000 418.400000
2406 11828 2407 1 109.50000 418.400000
2406 11828 2408 1 109.50000 418.400000
2406 11828 2409 1 109.50000 418.400000
2407 11828 2408 1 109.50000 418.400000
2407 11828 2409 1 109.50000 418.400000
2408 11828 2409 1 109.50000 418.400000
487 11829 2410 1 109.50000 418.400000
487 11829 2411 1 109.50000 418.400000
487 11829 2412 1 109.50000 418.400000
2410 11829 2411 1 109.50000 418.400000
2410 11829 2412 1 109.50000 418.400000
2411 11829 2412 1 109.50000 418.400000
2413 11830 2414 1 109.50000 418.400000
2413 11830 2415 1 109.50000 418.400000
2413 11830 2416 1 109.50000 418.400000
2414 11830 2415 1 109.50000 418.400000
2414 11830 2416 1 109.50000 418.400000
2415 11830 2416 1 109.50000 418.400000
2417 11831 2418 1 109.50000 418.400000
2417 11831 2419 1 109.50000 418.400000
2417 11831 2420 1 109.50000 418.400000
2418 11831 2419 1 109.50000 418.400000
2418 11831 2420 1 109.50000 418.400000
2419 11831 2420 1 109.50000 418.400000
2421 11832 2422 1 109.50000 418.400000
2421 11832 2423 1 109.50000 418.400000
2421 11832 2424 1 109.50000 418.400000
2422 11832 2423 1 109.50000 418.400000
2422 11832 2424 1 109.50000 418.400000
2423 11832 2424 1 109.50000 418.400000
2425 11833 2426 1 109.50000 418.400000
2425 11833 2427 1 109.50000 418.400000
2425 11833 2428 1 109.50000 418.400000
2426 11833 2427 1 109.50000 418.400000
2426 11833 2428 1 109.50000 418.400000
2427 11833 2428 1 109.50000 418.400000
2434 11834 2435 1 109.50000 418.400000
2434 11834 2436 1 109.50000 418.400000
2434 11834 2437 1 109.50000 418.400000
2435 11834 2436 1 109.50000 418.400000
2435 11834 2437 1 109.50000 418.400000
2436 11834 2437 1 109.50000 418.400000
2438 11835 2439 1 109.50000 418.400000
2438 11835 2440 1 109.50000 418.400000
2438 11835 2441 1 109.50000 418.400000
2439 11835 2440 1 109.50000 418.400000
2439 11835 2441 1 109.50000 418.400000
2440 11835 2441 1 109.50000 418.400000
2442 11836 2443 1 109.50000 418.400000
2442 11836 2444 1 109.50000 418.400000
2442 11836 2445 1 109.50000 418.400000
2443 11836 2444 1 109.50000 418.400000
2443 11836 2445 1 109.50000 418.400000
2444 11836 2445 1 109.50000 418.400000
2446 11837 2447 1 109.50000 418.400000
2446 11837 2448 1 109.50000 418.400000
2446 11837 2449 1 109.50000 418.400000
2447 11837 2448 1 109.50000 418.400000
2447 11837 2449 1 109.50000 418.400000
2448 11837 2449 1 109.50000 418.400000
1576 11838 2453 1 109.50000 418.400000
1576 11838 2454 1 109.50000 418.400000
1576 11838 2455 1 109.50000 418.400000
2453 11838 2454 1 109.50000 418.400000
2453 11838 2455 1 109.50000 418.400000
2454 11838 2455 1 109.50000 418.400000
2458 11839 2459 1 109.50000 418.400000
2458 11839 2460 1 109.50000 418.400000
2458 11839 2461 1 109.50000 418.400000
2459 11839 2460 1 109.50000 418.400000
2459 11839 2461 1 109.50000 418.400000
2460 11839 2461 1 109.50000 418.400000
2464 11840 2465 1 109.50000 418.400000
2464 11840 2466 1 109.50000 418.400000
2464 11840 2467 1 109.50000 418.400000
2465 11840 2466 1 109.50000 418.400000
2465 11840 2467 1 109.50000 418.400000
2466 11840 2467 1 109.50000 418.400000
2468 11841 2469 1 109.50000 418.400000
2468 11841 2470 1 109.50000 418.400000
2468 11841 2471 1 109.50000 418.400000
2469 11841 2470 1 109.50000 418.400000
2469 11841 2471 1 109.50000 418.400000
2470 11841 2471 1 109.50000 418.400000
2472 11842 2473 1 109.50000 418.400000
2472 11842 2474 1 109.50000 418.400000
2472 11842 2475 1 109.50000 418.400000
2473 11842 2474 1 109.50000 418.400000
2473 11842 2475 1 109.50000 418.400000
2474 11842 2475 1 109.50000 418.400000
2476 11843 2477 1 109.50000 418.400000
2476 11843 2478 1 109.50000 418.400000
2476 11843 10206 1 109.50000 418.400000
2477 11843 2478 1 109.50000 418.400000
2477 11843 10206 1 109.50000 418.400000
2478 11843 10206 1 109.50000 418.400000
280 11844 2480 1 109.50000 418.400000
280 11844 2481 1 109.50000 418.400000
280 11844 2482 1 109.50000 418.400000
2480 11844 2481 1 109.50000 418.400000
2480 11844 2482 1 109.50000 418.400000
2481 11844 2482 1 109.50000 418.400000
2486 11845 2487 1 109.50000 418.400000
2486 11845 2488 1 109.50000 418.400000
2486 11845 2489 1 109.50000 418.400000
2487 11845 2488 1 109.50000 418.400000
2487 11845 2489 1 109.50000 418.400000
2488 11845 2489 1 109.50000 418.400000
2496 11846 2497 1 109.50000 418.400000
2496 11846 2498 1 109.50000 418.400000
2496 11846 2499 1 109.50000 418.400000
2497 11846 2498 1 109.50000 418.400000
2497 11846 2499 1 109.50000 418.400000
2498 11846 2499 1 109.50000 418.400000
1324 11847 2502 1 109.50000 418.400000
1324 11847 2503 1 109.50000 418.400000
1324 11847 2504 1 109.50000 418.400000
2502 11847 2503 1 109.50000 418.400000
2502 11847 2504 1 109.50000 418.400000
2503 11847 2504 1 109.50000 418.400000
2508 11848 2509 1 109.50000 418.400000
2508 11848 2510 1 109.50000 418.400000
2508 11848 2511 1 109.50000 418.400000
2509 11848 2510 1 109.50000 418.400000
2509 11848 2511 1 109.50000 418.400000
2510 11848 2511 1 109.50000 418.400000
2512 11849 2513 1 109.50000 418.400000
2512 11849 2514 1 109.50000 418.400000
2512 11849 2515 1 109.50000 418.400000
2513 11849 2514 1 109.50000 418.400000
2513 11849 2515 1 109.50000 418.400000
2514 11849 2515 1 109.50000 418.400000
2516 11850 2517 1 109.50000 418.400000
2516 11850 2518 1 109.50000 418.400000
2516 11850 2519 1 109.50000 418.400000
2517 11850 2518 1 109.50000 418.400000
2517 11850 2519 1 109.50000 418.400000
2518 11850 2519 1 109.50000 418.400000
2520 11851 2521 1 109.50000 418.400000
2520 11851 2522 1 109.50000 418.400000
2520 11851 2523 1 109.50000 418.400000
2521 11851 2522 1 109.50000 418.400000
2521 11851 2523 1 109.50000 418.400000
2522 11851 2523 1 109.50000 418.400000
2524 11852 2525 1 109.50000 418.400000
2524 11852 2526 1 109.50000 418.400000
2524 11852 2527 1 109.50000 418.400000
2525 11852 2526 1 109.50000 418.400000
2525 11852 2527 1 109.50000 418.400000
2526 11852 2527 1 109.50000 418.400000
2528 11853 2529 1 109.50000 418.400000
2528 11853 2530 1 109.50000 418.400000
2528 11853 2531 1 109.50000 418.400000
2529 11853 2530 1 109.50000 418.400000
2529 11853 2531 1 109.50000 418.400000
2530 11853 2531 1 109.50000 418.400000
2532 11854 2533 1 109.50000 418.400000
2532 11854 2534 1 109.50000 418.400000
2532 11854 2535 1 109.50000 418.400000
2533 11854 2534 1 109.50000 418.400000
2533 11854 2535 1 109.50000 418.400000
2534 11854 2535 1 109.50000 418.400000
2468 11855 2536 1 109.50000 418.400000
2468 11855 2537 1 109.50000 418.400000
2468 11855 2538 1 109.50000 418.400000
2536 11855 2537 1 109.50000 418.400000
2536 11855 2538 1 109.50000 418.400000
2537 11855 2538 1 109.50000 418.400000
2328 11856 2539 1 109.50000 418.400000
2328 11856 2540 1 109.50000 418.400000
2328 11856 2541 1 109.50000 418.400000
2539 11856 2540 1 109.50000 418.400000
2539 11856 2541 1 109.50000 418.400000
2540 11856 2541 1 109.50000 418.400000
230 11857 2542 1 109.50000 418.400000
230 11857 2543 1 109.50000 418.400000
230 11857 2544 1 109.50000 418.400000
2542 11857 2543 1 109.50000 418.400000
2542 11857 2544 1 109.50000 418.400000
2543 11857 2544 1 109.50000 418.400000
2545 11858 2546 1 109.50000 418.400000
2545 11858 2547 1 109.50000 418.400000
2545 11858 2548 1 109.50000 418.400000
2546 11858 2547 1 109.50000 418.400000
2546 11858 2548 1 109.50000 418.400000
2547 11858 2548 1 109.50000 418.400000
2549 11859 2550 1 109.50000 418.400000
2549 11859 2551 1 109.50000 418.400000
2549 11859 2552 1 109.50000 418.400000
2550 11859 2551 1 109.50000 418.400000
2550 11859 2552 1 109.50000 418.400000
2551 11859 2552 1 109.50000 418.400000
2553 11860 2554 1 109.50000 418.400000
2553 11860 2555 1 109.50000 418.400000
2553 11860 2556 1 109.50000 418.400000
2554 11860 2555 1 109.50000 418.400000
2554 11860 2556 1 109.50000 418.400000
2555 11860 2556 1 109.50000 418.400000
1964 11861 2561 1 109.50000 418.400000
1964 11861 2562 1 109.50000 418.400000
1964 11861 2563 1 109.50000 418.400000
2561 11861 2562 1 109.50000 418.400000
2561 11861 2563 1 109.50000 418.400000
2562 11861 2563 1 109.50000 418.400000
690 11862 2564 1 109.50000 418.400000
690 11862 2565 1 109.50000 418.400000
690 11862 2566 1 109.50000 418.400000
2564 11862 2565 1 109.50000 418.400000
2564 11862 2566 1 109.50000 418.400000
2565 11862 2566 1 109.50000 418.400000
2567 11863 2568 1 109.50000 418.400000
2567 11863 2569 1 109.50000 418.400000
2567 11863 2570 1 109.50000 418.400000
2568 11863 2569 1 109.50000 418.400000
2568 11863 2570 1 109.50000 418.400000
2569 11863 2570 1 109.50000 418.400000
2400 11864 2571 1 109.50000 418.400000
2400 11864 2572 1 109.50000 418.400000
2400 11864 3759 1 109.50000 418.400000
2571 11864 2572 1 109.50000 418.400000
2571 11864 3759 1 109.50000 418.400000
2572 11864 3759 1 109.50000 418.400000
2574 11865 2575 1 109.50000 418.400000
2574 11865 2576 1 109.50000 418.400000
2574 11865 2577 1 109.50000 418.400000
2575 11865 2576 1 109.50000 418.400000
2575 11865 2577 1 109.50000 418.400000
2576 11865 2577 1 109.50000 418.400000
1898 11866 2578 1 109.50000 418.400000
1898 11866 2579 1 109.50000 418.400000
1898 11866 2580 1 109.50000 418.400000
2578 11866 2579 1 109.50000 418.400000
2578 11866 2580 1 109.50000 418.400000
2579 11866 2580 1 109.50000 418.400000
2584 11867 2585 1 109.50000 418.400000
2584 11867 2586 1 109.50000 418.400000
2584 11867 6496 1 109.50000 418.400000
2585 11867 2586 1 109.50000 418.400000
2585 11867 6496 1 109.50000 418.400000
2586 11867 6496 1 109.50000 418.400000
847 11868 2592 1 109.50000 418.400000
847 11868 2593 1 109.50000 418.400000
847 11868 2594 1 109.50000 418.400000
2592 11868 2593 1 109.50000 418.400000
2592 11868 2594 1 109.50000 418.400000
2593 11868 2594 1 109.50000 418.400000
628 11869 2595 1 109.50000 418.400000
628 11869 2596 1 109.50000 418.400000
628 11869 2597 1 109.50000 418.400000
2595 11869 2596 1 109.50000 418.400000
2595 11869 2597 1 109.50000 418.400000
2596 11869 2597 1 109.50000 418.400000
2598 11870 2599 1 109.50000 418.400000
2598 11870 2600 1 109.50000 418.400000
2598 11870 2601 1 109.50000 418.400000
2599 11870 2600 1 109.50000 418.400000
2599 11870 2601 1 109.50000 418.400000
2600 11870 2601 1 109.50000 418.400000
2604 11871 2989 1 109.50000 418.400000
2604 11871 2990 1 109.50000 418.400000
2604 11871 9329 1 109.50000 418.400000
2989 11871 2990 1 109.50000 418.400000
2989 11871 9329 1 109.50000 418.400000
2990 11871 9329 1 109.50000 418.400000
2606 11872 2608 1 109.50000 418.400000
2606 11872 2609 1 109.50000 418.400000
2606 11872 9020 1 109.50000 418.400000
2608 11872 2609 1 109.50000 418.400000
2608 11872 9020 1 109.50000 418.400000
2609 11872 9020 1 109.50000 418.400000
2610 11873 2611 1 109.50000 418.400000
2610 11873 2612 1 109.50000 418.400000
2610 11873 7265 1 109.50000 418.400000
2611 11873 2612 1 109.50000 418.400000
2611 11873 7265 1 109.50000 418.400000
2612 11873 7265 1 109.50000 418.400000
1298 11874 2613 1 109.50000 418.400000
1298 11874 2614 1 109.50000 418.400000
1298 11874 2615 1 109.50000 418.400000
2613 11874 2614 1 109.50000 418.400000
2613 11874 2615 1 109.50000 418.400000
2614 11874 2615 1 109.50000 418.400000
1313 11875 2616 1 109.50000 418.400000
1313 11875 2617 1 109.50000 418.400000
1313 11875 2618 1 109.50000 418.400000
2616 11875 2617 1 109.50000 418.400000
2616 11875 2618 1 109.50000 418.400000
2617 11875 2618 1 109.50000 418.400000
2619 11876 2620 1 109.50000 418.400000
2619 11876 2621 1 109.50000 418.400000
2619 11876 2622 1 109.50000 418.400000
2620 11876 2621 1 109.50000 418.400000
2620 11876 2622 1 109.50000 418.400000
2621 11876 2622 1 109.50000 418.400000
2626 11877 2627 1 109.50000 418.400000
2626 11877 2628 1 109.50000 418.400000
2626 11877 6785 1 109.50000 418.400000
2627 11877 2628 1 109.50000 418.400000
2627 11877 6785 1 109.50000 418.400000
2628 11877 6785 1 109.50000 418.400000
2496 11878 2629 1 109.50000 418.400000
2496 11878 2630 1 109.50000 418.400000
2496 11878 2631 1 109.50000 418.400000
2629 11878 2630 1 109.50000 418.400000
2629 11878 2631 1 109.50000 418.400000
2630 11878 2631 1 109.50000 418.400000
2632 11879 2633 1 109.50000 418.400000
2632 11879 2634 1 109.50000 418.400000
2632 11879 2635 1 109.50000 418.400000
2633 11879 2634 1 109.50000 418.400000
2633 11879 2635 1 109.50000 418.400000
2634 11879 2635 1 109.50000 418.400000
2636 11880 2637 1 109.50000 418.400000
2636 11880 2638 1 109.50000 418.400000
2636 11880 2639 1 109.50000 418.400000
2637 11880 2638 1 109.50000 418.400000
2637 11880 2639 1 109.50000 418.400000
2638 11880 2639 1 109.50000 418.400000
2640 11881 2641 1 109.50000 418.400000
2640 11881 2642 1 109.50000 418.400000
2640 11881 2643 1 109.50000 418.400000
2641 11881 2642 1 109.50000 418.400000
2641 11881 2643 1 109.50000 418.400000
2642 11881 2643 1 109.50000 418.400000
1434 11882 2644 1 109.50000 418.400000
1434 11882 2645 1 109.50000 418.400000
1434 11882 2646 1 109.50000 418.400000
2644 11882 2645 1 109.50000 418.400000
2644 11882 2646 1 109.50000 418.400000
2645 11882 2646 1 109.50000 418.400000
2647 11883 2648 1 109.50000 418.400000
2647 11883 2650 1 109.50000 418.400000
2647 11883 11078 1 109.50000 418.400000
2648 11883 2650 1 109.50000 418.400000
2648 11883 11078 1 109.50000 418.400000
2650 11883 11078 1 109.50000 418.400000
2654 11884 2655 1 109.50000 418.400000
2654 11884 2656 1 109.50000 418.400000
2654 11884 2657 1 109.50000 418.400000
2655 11884 2656 1 109.50000 418.400000
2655 11884 2657 1 109.50000 418.400000
2656 11884 2657 1 109.50000 418.400000
875 11885 1005 1 109.50000 418.400000
875 11885 2658 1 109.50000 418.400000
875 11885 2659 1 109.50000 418.400000
1005 11885 2658 1 109.50000 418.400000
1005 11885 2659 1 109.50000 418.400000
2658 11885 2659 1 109.50000 418.400000
2660 11886 2661 1 109.50000 418.400000
2660 11886 2662 1 109.50000 418.400000
2660 11886 2663 1 109.50000 418.400000
2661 11886 2662 1 109.50000 418.400000
2661 11886 2663 1 109.50000 418.400000
2662 11886 2663 1 109.50000 418.400000
756 11887 1161 1 109.50000 418.400000
756 11887 2664 1 109.50000 418.400000
756 11887 2665 1 109.50000 418.400000
1161 11887 2664 1 109.50000 418.400000
1161 11887 2665 1 109.50000 418.400000
2664 11887 2665 1 109.50000 418.400000
695 11888 769 1 109.50000 418.400000
695 11888 2666 1 109.50000 418.400000
695 11888 2667 1 109.50000 418.400000
769 11888 2666 1 109.50000 418.400000
769 11888 2667 1 109.50000 418.400000
2666 11888 2667 1 109.50000 418.400000
2668 11889 2669 1 109.50000 418.400000
2668 11889 2670 1 109.50000 418.400000
2668 11889 2671 1 109.50000 418.400000
2669 11889 2670 1 109.50000 418.400000
2669 11889 2671 1 109.50000 418.400000
2670 11889 2671 1 109.50000 418.400000
2672 11890 2673 1 109.50000 418.400000
2672 11890 2674 1 109.50000 418.400000
2672 11890 2675 1 109.50000 418.400000
2673 11890 2674 1 109.50000 418.400000
2673 11890 2675 1 109.50000 418.400000
2674 11890 2675 1 109.50000 418.400000
2676 11891 2677 1 109.50000 418.400000
2676 11891 2678 1 109.50000 418.400000
2676 11891 2679 1 109.50000 418.400000
2677 11891 2678 1 109.50000 418.400000
2677 11891 2679 1 109.50000 418.400000
2678 11891 2679 1 109.50000 418.400000
2680 11892 2681 1 109.50000 418.400000
2680 11892 2682 1 109.50000 418.400000
2680 11892 3309 1 109.50000 418.400000
2681 11892 2682 1 109.50000 418.400000
2681 11892 3309 1 109.50000 418.400000
2682 11892 3309 1 109.50000 418.400000
2684 11893 2685 1 109.50000 418.400000
2684 11893 2686 1 109.50000 418.400000
2684 11893 2687 1 109.50000 418.400000
2685 11893 2686 1 109.50000 418.400000
2685 11893 2687 1 109.50000 418.400000
2686 11893 2687 1 109.50000 418.400000
2688 11894 2689 1 109.50000 418.400000
2688 11894 2690 1 109.50000 418.400000
2688 11894 2691 1 109.50000 418.400000
2689 11894 2690 1 109.50000 418.400000
2689 11894 2691 1 109.50000 418.400000
2690 11894 2691 1 109.50000 418.400000
2692 11895 2693 1 109.50000 418.400000
2692 11895 2694 1 109.50000 418.400000
2692 11895 2695 1 109.50000 418.400000
2693 11895 2694 1 109.50000 418.400000
2693 11895 2695 1 109.50000 418.400000
2694 11895 2695 1 109.50000 418.400000
2583 11896 2699 1 109.50000 418.400000
2583 11896 2700 1 109.50000 418.400000
2583 11896 2701 1 109.50000 418.400000
2699 11896 2700 1 109.50000 418.400000
2699 11896 2701 1 109.50000 418.400000
2700 11896 2701 1 109.50000 418.400000
2702 11897 2703 1 109.50000 418.400000
2702 11897 2704 1 109.50000 418.400000
2702 11897 2705 1 109.50000 418.400000
2703 11897 2704 1 109.50000 418.400000
2703 11897 2705 1 109.50000 418.400000
2704 11897 2705 1 109.50000 418.400000
2428 11898 2706 1 109.50000 418.400000
2428 11898 2707 1 109.50000 418.400000
2428 11898 2708 1 109.50000 418.400000
2706 11898 2707 1 109.50000 418.400000
2706 11898 2708 1 109.50000 418.400000
2707 11898 2708 1 109.50000 418.400000
2709 11899 2710 1 109.50000 418.400000
2709 11899 2711 1 109.50000 418.400000
2709 11899 2712 1 109.50000 418.400000
2710 11899 2711 1 109.50000 418.400000
2710 11899 2712 1 109.50000 418.400000
2711 11899 2712 1 109.50000 418.400000
2713 11900 2714 1 109.50000 418.400000
2713 11900 2715 1 109.50000 418.400000
2713 11900 2716 1 109.50000 418.400000
2714 11900 2715 1 109.50000 418.400000
2714 11900 2716 1 109.50000 418.400000
2715 11900 2716 1 109.50000 418.400000
2717 11901 2718 1 109.50000 418.400000
2717 11901 2719 1 109.50000 418.400000
2717 11901 2720 1 109.50000 418.400000
2718 11901 2719 1 109.50000 418.400000
2718 11901 2720 1 109.50000 418.400000
2719 11901 2720 1 109.50000 418.400000
2721 11902 2722 1 109.50000 418.400000
2721 11902 2723 1 109.50000 418.400000
2721 11902 2724 1 109.50000 418.400000
2722 11902 2723 1 109.50000 418.400000
2722 11902 2724 1 109.50000 418.400000
2723 11902 2724 1 109.50000 418.400000
2725 11903 2726 1 109.50000 418.400000
2725 11903 2727 1 109.50000 418.400000
2725 11903 2728 1 109.50000 418.400000
2726 11903 2727 1 109.50000 418.400000
2726 11903 2728 1 109.50000 418.400000
2727 11903 2728 1 109.50000 418.400000
828 11904 2732 1 109.50000 418.400000
828 11904 2733 1 109.50000 418.400000
828 11904 2734 1 109.50000 418.400000
2732 11904 2733 1 109.50000 418.400000
2732 11904 2734 1 109.50000 418.400000
2733 11904 2734 1 109.50000 418.400000
982 11905 2735 1 109.50000 418.400000
982 11905 2736 1 109.50000 418.400000
982 11905 2737 1 109.50000 418.400000
2735 11905 2736 1 109.50000 418.400000
2735 11905 2737 1 109.50000 418.400000
2736 11905 2737 1 109.50000 418.400000
2738 11906 2739 1 109.50000 418.400000
2738 11906 2740 1 109.50000 418.400000
2738 11906 2741 1 109.50000 418.400000
2739 11906 2740 1 109.50000 418.400000
2739 11906 2741 1 109.50000 418.400000
2740 11906 2741 1 109.50000 418.400000
2742 11907 2743 1 109.50000 418.400000
2742 11907 2744 1 109.50000 418.400000
2742 11907 2745 1 109.50000 418.400000
2743 11907 2744 1 109.50000 418.400000
2743 11907 2745 1 109.50000 418.400000
2744 11907 2745 1 109.50000 418.400000
1520 11908 2746 1 109.50000 418.400000
1520 11908 2747 1 109.50000 418.400000
1520 11908 2748 1 109.50000 418.400000
2746 11908 2747 1 109.50000 418.400000
2746 11908 2748 1 109.50000 418.400000
2747 11908 2748 1 109.50000 418.400000
2749 11909 2750 1 109.50000 418.400000
2749 11909 2751 1 109.50000 418.400000
2749 11909 2752 1 109.50000 418.400000
2750 11909 2751 1 109.50000 418.400000
2750 11909 2752 1 109.50000 418.400000
2751 11909 2752 1 109.50000 418.400000
2753 11910 2755 1 109.50000 418.400000
2753 11910 2756 1 109.50000 418.400000
2753 11910 5577 1 109.50000 418.400000
2755 11910 2756 1 109.50000 418.400000
2755 11910 5577 1 109.50000 418.400000
2756 11910 5577 1 109.50000 418.400000
2757 11911 2758 1 109.50000 418.400000
2757 11911 2759 1 109.50000 418.400000
2757 11911 2760 1 109.50000 418.400000
2758 11911 2759 1 109.50000 418.400000
2758 11911 2760 1 109.50000 418.400000
2759 11911 2760 1 109.50000 418.400000
1819 11912 2761 1 109.50000 418.400000
1819 11912 2762 1 109.50000 418.400000
1819 11912 2763 1 109.50000 418.400000
2761 11912 2762 1 109.50000 418.400000
2761 11912 2763 1 109.50000 418.400000
2762 11912 2763 1 109.50000 418.400000
2764 11913 2765 1 109.50000 418.400000
2764 11913 2766 1 109.50000 418.400000
2764 11913 2767 1 109.50000 418.400000
2765 11913 2766 1 109.50000 418.400000
2765 11913 2767 1 109.50000 418.400000
2766 11913 2767 1 109.50000 418.400000
171 11914 2768 1 109.50000 418.400000
171 11914 2769 1 109.50000 418.400000
171 11914 2770 1 109.50000 418.400000
2768 11914 2769 1 109.50000 418.400000
2768 11914 2770 1 109.50000 418.400000
2769 11914 2770 1 109.50000 418.400000
2771 11915 2773 1 109.50000 418.400000
2771 11915 2774 1 109.50000 418.400000
2771 11915 6883 1 109.50000 418.400000
2773 11915 2774 1 109.50000 418.400000
2773 11915 6883 1 109.50000 418.400000
2774 11915 6883 1 109.50000 418.400000
734 11916 2777 1 109.50000 418.400000
734 11916 2778 1 109.50000 418.400000
734 11916 2779 1 109.50000 418.400000
2777 11916 2778 1 109.50000 418.400000
2777 11916 2779 1 109.50000 418.400000
2778 11916 2779 1 109.50000 418.400000
2780 11917 2781 1 109.50000 418.400000
2780 11917 2782 1 109.50000 418.400000
2780 11917 2783 1 109.50000 418.400000
2781 11917 2782 1 109.50000 418.400000
2781 11917 2783 1 109.50000 418.400000
2782 11917 2783 1 109.50000 418.400000
2784 11918 2785 1 109.50000 418.400000
2784 11918 2786 1 109.50000 418.400000
2784 11918 2787 1 109.50000 418.400000
2785 11918 2786 1 109.50000 418.400000
2785 11918 2787 1 109.50000 418.400000
2786 11918 2787 1 109.50000 418.400000
911 11919 2788 1 109.50000 418.400000
911 11919 2789 1 109.50000 418.400000
911 11919 2790 1 109.50000 418.400000
2788 11919 2789 1 109.50000 418.400000
2788 11919 2790 1 109.50000 418.400000
2789 11919 2790 1 109.50000 418.400000
301 11920 2791 1 109.50000 418.400000
301 11920 2792 1 109.50000 418.400000
301 11920 4806 1 109.50000 418.400000
2791 11920 2792 1 109.50000 418.400000
2791 11920 4806 1 109.50000 418.400000
2792 11920 4806 1 109.50000 418.400000
2794 11921 2795 1 109.50000 418.400000
2794 11921 2796 1 109.50000 418.400000
2794 11921 10676 1 109.50000 418.400000
2795 11921 2796 1 109.50000 418.400000
2795 11921 10676 1 109.50000 418.400000
2796 11921 10676 1 109.50000 418.400000
191 11922 322 1 109.50000 418.400000
191 11922 2798 1 109.50000 418.400000
191 11922 2799 1 109.50000 418.400000
322 11922 2798 1 109.50000 418.400000
322 11922 2799 1 109.50000 418.400000
2798 11922 2799 1 109.50000 418.400000
699 11923 2800 1 109.50000 418.400000
699 11923 2801 1 109.50000 418.400000
699 11923 8976 1 109.50000 418.400000
2800 11923 2801 1 109.50000 418.400000
2800 11923 8976 1 109.50000 418.400000
2801 11923 8976 1 109.50000 418.400000
2058 11924 2803 1 109.50000 418.400000
2058 11924 2804 1 109.50000 418.400000
2058 11924 2805 1 109.50000 418.400000
2803 11924 2804 1 109.50000 418.400000
2803 11924 2805 1 109.50000 418.400000
2804 11924 2805 1 109.50000 418.400000
2806 11925 2807 1 109.50000 418.400000
2806 11925 2808 1 109.50000 418.400000
2806 11925 2809 1 109.50000 418.400000
2807 11925 2808 1 109.50000 418.400000
2807 11925 2809 1 109.50000 418.400000
2808 11925 2809 1 109.50000 418.400000
2810 11926 2811 1 109.50000 418.400000
2810 11926 2812 1 109.50000 418.400000
2810 11926 2813 1 109.50000 418.400000
2811 11926 2812 1 109.50000 418.400000
2811 11926 2813 1 109.50000 418.400000
2812 11926 2813 1 109.50000 418.400000
435 11927 436 1 109.50000 418.400000
435 11927 2814 1 109.50000 418.400000
435 11927 2816 1 109.50000 418.400000
436 11927 2814 1 109.50000 418.400000
436 11927 2816 1 109.50000 418.400000
2814 11927 2816 1 109.50000 418.400000
2818 11928 2819 1 109.50000 418.400000
2818 11928 2820 1 109.50000 418.400000
2818 11928 2821 1 109.50000 418.400000
2819 11928 2820 1 109.50000 418.400000
2819 11928 2821 1 109.50000 418.400000
2820 11928 2821 1 109.50000 418.400000
1494 11929 2822 1 109.50000 418.400000
1494 11929 2823 1 109.50000 418.400000
1494 11929 2824 1 109.50000 418.400000
2822 11929 2823 1 109.50000 418.400000
2822 11929 2824 1 109.50000 418.400000
2823 11929 2824 1 109.50000 418.400000
2825 11930 2826 1 109.50000 418.400000
2825 11930 2827 1 109.50000 418.400000
2825 11930 2828 1 109.50000 418.400000
2826 11930 2827 1 109.50000 418.400000
2826 11930 2828 1 109.50000 418.400000
2827 11930 2828 1 109.50000 418.400000
1803 11931 2829 1 109.50000 418.400000
1803 11931 2830 1 109.50000 418.400000
1803 11931 2831 1 109.50000 418.400000
2829 11931 2830 1 109.50000 418.400000
2829 11931 2831 1 109.50000 418.400000
2830 11931 2831 1 109.50000 418.400000
1186 11932 1994 1 109.50000 418.400000
1186 11932 2832 1 109.50000 418.400000
1186 11932 2833 1 109.50000 418.400000
1994 11932 2832 1 109.50000 418.400000
1994 11932 2833 1 109.50000 418.400000
2832 11932 2833 1 109.50000 418.400000
635 11933 2834 1 109.50000 418.400000
635 11933 2835 1 109.50000 418.400000
635 11933 2836 1 109.50000 418.400000
2834 11933 2835 1 109.50000 418.400000
2834 11933 2836 1 109.50000 418.400000
2835 11933 2836 1 109.50000 418.400000
1027 11934 2837 1 109.50000 418.400000
1027 11934 2838 1 109.50000 418.400000
1027 11934 2839 1 109.50000 418.400000
2837 11934 2838 1 109.50000 418.400000
2837 11934 2839 1 109.50000 418.400000
2838 11934 2839 1 109.50000 418.400000
2840 11935 2841 1 109.50000 418.400000
2840 11935 2842 1 109.50000 418.400000
2840 11935 2843 1 109.50000 418.400000
2841 11935 2842 1 109.50000 418.400000
2841 11935 2843 1 109.50000 418.400000
2842 11935 2843 1 109.50000 418.400000
2844 11936 2845 1 109.50000 418.400000
2844 11936 2846 1 109.50000 418.400000
2844 11936 2847 1 109.50000 418.400000
2845 11936 2846 1 109.50000 418.400000
2845 11936 2847 1 109.50000 418.400000
2846 11936 2847 1 109.50000 418.400000
300 11937 2848 1 109.50000 418.400000
300 11937 2849 1 109.50000 418.400000
300 11937 2850 1 109.50000 418.400000
2848 11937 2849 1 109.50000 418.400000
2848 11937 2850 1 109.50000 418.400000
2849 11937 2850 1 109.50000 418.400000
1763 11938 2851 1 109.50000 418.400000
1763 11938 2852 1 109.50000 418.400000
1763 11938 2853 1 109.50000 418.400000
2851 11938 2852 1 109.50000 418.400000
2851 11938 2853 1 109.50000 418.400000
2852 11938 2853 1 109.50000 418.400000
105 11939 2854 1 109.50000 418.400000
105 11939 2855 1 109.50000 418.400000
105 11939 2856 1 109.50000 418.400000
2854 11939 2855 1 109.50000 418.400000
2854 11939 2856 1 109.50000 418.400000
2855 11939 2856 1 109.50000 418.400000
2858 11940 2859 1 109.50000 418.400000
2858 11940 2860 1 109.50000 418.400000
2858 11940 7512 1 109.50000 418.400000
2859 11940 2860 1 109.50000 418.400000
2859 11940 7512 1 109.50000 418.400000
2860 11940 7512 1 109.50000 418.400000
261 11941 470 1 109.50000 418.400000
261 11941 2862 1 109.50000 418.400000
261 11941 2863 1 109.50000 418.400000
470 11941 2862 1 109.50000 418.400000
470 11941 2863 1 109.50000 418.400000
2862 11941 2863 1 109.50000 418.400000
2550 11942 2864 1 109.50000 418.400000
2550 11942 2865 1 109.50000 418.400000
2550 11942 4860 1 109.50000 418.400000
2864 11942 2865 1 109.50000 418.400000
2864 11942 4860 1 109.50000 418.400000
2865 11942 4860 1 109.50000 418.400000
2867 11943 2868 1 109.50000 418.400000
2867 11943 2869 1 109.50000 418.400000
2867 11943 2870 1 109.50000 418.400000
2868 11943 2869 1 109.50000 418.400000
2868 11943 2870 1 109.50000 418.400000
2869 11943 2870 1 109.50000 418.400000
1142 11944 2871 1 109.50000 418.400000
1142 11944 2872 1 109.50000 418.400000
1142 11944 2873 1 109.50000 418.400000
2871 11944 2872 1 109.50000 418.400000
2871 11944 2873 1 109.50000 418.400000
2872 11944 2873 1 109.50000 418.400000
1206 11945 2874 1 109.50000 418.400000
1206 11945 2875 1 109.50000 418.400000
1206 11945 2876 1 109.50000 418.400000
2874 11945 2875 1 109.50000 418.400000
2874 11945 2876 1 109.50000 418.400000
2875 11945 2876 1 109.50000 418.400000
2040 11946 2877 1 109.50000 418.400000
2040 11946 2878 1 109.50000 418.400000
2040 11946 2879 1 109.50000 418.400000
2877 11946 2878 1 109.50000 418.400000
2877 11946 2879 1 109.50000 418.400000
2878 11946 2879 1 109.50000 418.400000
2880 11947 2881 1 109.50000 418.400000
2880 11947 2882 1 109.50000 418.400000
2880 11947 2883 1 109.50000 418.400000
2881 11947 2882 1 109.50000 418.400000
2881 11947 2883 1 109.50000 418.400000
2882 11947 2883 1 109.50000 418.400000
1937 11948 2886 1 109.50000 418.400000
1937 11948 2887 1 109.50000 418.400000
1937 11948 2888 1 109.50000 418.400000
2886 11948 2887 1 109.50000 418.400000
2886 11948 2888 1 109.50000 418.400000
2887 11948 2888 1 109.50000 418.400000
2892 11949 2893 1 109.50000 418.400000
2892 11949 2895 1 109.50000 418.400000
2892 11949 9517 1 109.50000 418.400000
2893 11949 2895 1 109.50000 418.400000
2893 11949 9517 1 109.50000 418.400000
2895 11949 9517 1 109.50000 418.400000
2896 11950 2897 1 109.50000 418.400000
2896 11950 2898 1 109.50000 418.400000
2896 11950 2899 1 109.50000 418.400000
2897 11950 2898 1 109.50000 418.400000
2897 11950 2899 1 109.50000 418.400000
2898 11950 2899 1 109.50000 418.400000
1810 11951 2900 1 109.50000 418.400000
1810 11951 2901 1 109.50000 418.400000
1810 11951 2902 1 109.50000 418.400000
2900 11951 2901 1 109.50000 418.400000
2900 11951 2902 1 109.50000 418.400000
2901 11951 2902 1 109.50000 418.400000
156 11952 2903 1 109.50000 418.400000
156 11952 2904 1 109.50000 418.400000
156 11952 2905 1 109.50000 418.400000
2903 11952 2904 1 109.50000 418.400000
2903 11952 2905 1 109.50000 418.400000
2904 11952 2905 1 109.50000 418.400000
580 11953 906 1 109.50000 418.400000
580 11953 2906 1 109.50000 418.400000
580 11953 2908 1 109.50000 418.400000
906 11953 2906 1 109.50000 418.400000
906 11953 2908 1 109.50000 418.400000
2906 11953 2908 1 109.50000 418.400000
334 11954 2909 1 109.50000 418.400000
334 11954 2910 1 109.50000 418.400000
334 11954 2911 1 109.50000 418.400000
2909 11954 2910 1 109.50000 418.400000
2909 11954 2911 1 109.50000 418.400000
2910 11954 2911 1 109.50000 418.400000
2770 11955 2912 1 109.50000 418.400000
2770 11955 2913 1 109.50000 418.400000
2770 11955 2914 1 109.50000 418.400000
2912 11955 2913 1 109.50000 418.400000
2912 11955 2914 1 109.50000 418.400000
2913 11955 2914 1 109.50000 418.400000
2915 11956 2916 1 109.50000 418.400000
2915 11956 2917 1 109.50000 418.400000
2915 11956 3432 1 109.50000 418.400000
2916 11956 2917 1 109.50000 418.400000
2916 11956 3432 1 109.50000 418.400000
2917 11956 3432 1 109.50000 418.400000
2834 11957 2918 1 109.50000 418.400000
2834 11957 2919 1 109.50000 418.400000
2834 11957 2920 1 109.50000 418.400000
2918 11957 2919 1 109.50000 418.400000
2918 11957 2920 1 109.50000 418.400000
2919 11957 2920 1 109.50000 418.400000
566 11958 1468 1 109.50000 418.400000
566 11958 1470 1 109.50000 418.400000
566 11958 2623 1 109.50000 418.400000
1468 11958 1470 1 109.50000 418.400000
1468 11958 2623 1 109.50000 418.400000
1470 11958 2623 1 109.50000 418.400000
2923 11959 2924 1 109.50000 418.400000
2923 11959 2925 1 109.50000 418.400000
2923 11959 2926 1 109.50000 418.400000
2924 11959 2925 1 109.50000 418.400000
2924 11959 2926 1 109.50000 418.400000
2925 11959 2926 1 109.50000 418.400000
2927 11960 2928 1 109.50000 418.400000
2927 11960 2929 1 109.50000 418.400000
2927 11960 2930 1 109.50000 418.400000
2928 11960 2929 1 109.50000 418.400000
2928 11960 2930 1 109.50000 418.400000
2929 11960 2930 1 109.50000 418.400000
2003 11961 2931 1 109.50000 418.400000
2003 11961 2932 1 109.50000 418.400000
2003 11961 2933 1 109.50000 418.400000
2931 11961 2932 1 109.50000 418.400000
2931 11961 2933 1 109.50000 418.400000
2932 11961 2933 1 109.50000 418.400000
876 11962 2934 1 109.50000 418.400000
876 11962 2935 1 109.50000 418.400000
876 11962 2936 1 109.50000 418.400000
2934 11962 2935 1 109.50000 418.400000
2934 11962 2936 1 109.50000 418.400000
2935 11962 2936 1 109.50000 418.400000
655 11963 2937 1 109.50000 418.400000
655 11963 2938 1 109.50000 418.400000
655 11963 2939 1 109.50000 418.400000
2937 11963 2938 1 109.50000 418.400000
2937 11963 2939 1 109.50000 418.400000
2938 11963 2939 1 109.50000 418.400000
2940 11964 2941 1 109.50000 418.400000
2940 11964 2942 1 109.50000 418.400000
2940 11964 6129 1 109.50000 418.400000
2941 11964 2942 1 109.50000 418.400000
2941 11964 6129 1 109.50000 418.400000
2942 11964 6129 1 109.50000 418.400000
2947 11965 2948 1 109.50000 418.400000
2947 11965 2949 1 109.50000 418.400000
2947 11965 2950 1 109.50000 418.400000
2948 11965 2949 1 109.50000 418.400000
2948 11965 2950 1 109.50000 418.400000
2949 11965 2950 1 109.50000 418.400000
2953 11966 7431 1 109.50000 418.400000
2953 11966 8330 1 109.50000 418.400000
2953 11966 11062 1 109.50000 418.400000
7431 11966 8330 1 109.50000 418.400000
7431 11966 11062 1 109.50000 418.400000
8330 11966 11062 1 109.50000 418.400000
2269 11967 2955 1 109.50000 418.400000
2269 11967 2956 1 109.50000 418.400000
2269 11967 2957 1 109.50000 418.400000
2955 11967 2956 1 109.50000 418.400000
2955 11967 2957 1 109.50000 418.400000
2956 11967 2957 1 109.50000 418.400000
2958 11968 2959 1 109.50000 418.400000
2958 11968 2960 1 109.50000 418.400000
2958 11968 2961 1 109.50000 418.400000
2959 11968 2960 1 109.50000 418.400000
2959 11968 2961 1 109.50000 418.400000
2960 11968 2961 1 109.50000 418.400000
2962 11969 2963 1 109.50000 418.400000
2962 11969 2964 1 109.50000 418.400000
2962 11969 2965 1 109.50000 418.400000
2963 11969 2964 1 109.50000 418.400000
2963 11969 2965 1 109.50000 418.400000
2964 11969 2965 1 109.50000 418.400000
2966 11970 2967 1 109.50000 418.400000
2966 11970 2968 1 109.50000 418.400000
2966 11970 2969 1 109.50000 418.400000
2967 11970 2968 1 109.50000 418.400000
2967 11970 2969 1 109.50000 418.400000
2968 11970 2969 1 109.50000 418.400000
2970 11971 2971 1 109.50000 418.400000
2970 11971 2973 1 109.50000 418.400000
2970 11971 4010 1 109.50000 418.400000
2971 11971 2973 1 109.50000 418.400000
2971 11971 4010 1 109.50000 418.400000
2973 11971 4010 1 109.50000 418.400000
2974 11972 2975 1 109.50000 418.400000
2974 11972 2976 1 109.50000 418.400000
2974 11972 2977 1 109.50000 418.400000
2975 11972 2976 1 109.50000 418.400000
2975 11972 2977 1 109.50000 418.400000
2976 11972 2977 1 109.50000 418.400000
2978 11973 2979 1 109.50000 418.400000
2978 11973 2980 1 109.50000 418.400000
2978 11973 2981 1 109.50000 418.400000
2979 11973 2980 1 109.50000 418.400000
2979 11973 2981 1 109.50000 418.400000
2980 11973 2981 1 109.50000 418.400000
2982 11974 2983 1 109.50000 418.400000
2982 11974 2984 1 109.50000 418.400000
2982 11974 2985 1 109.50000 418.400000
2983 11974 2984 1 109.50000 418.400000
2983 11974 2985 1 109.50000 418.400000
2984 11974 2985 1 109.50000 418.400000
1583 11975 2996 1 109.50000 418.400000
1583 11975 2997 1 109.50000 418.400000
1583 11975 11194 1 109.50000 418.400000
2996 11975 2997 1 109.50000 418.400000
2996 11975 11194 1 109.50000 418.400000
2997 11975 11194 1 109.50000 418.400000
2998 11976 2999 1 109.50000 418.400000
2998 11976 3000 1 109.50000 418.400000
2998 11976 3001 1 109.50000 418.400000
2999 11976 3000 1 109.50000 418.400000
2999 11976 3001 1 109.50000 418.400000
3000 11976 3001 1 109.50000 418.400000
902 11977 2488 1 109.50000 418.400000
902 11977 3002 1 109.50000 418.400000
902 11977 3003 1 109.50000 418.400000
2488 11977 3002 1 109.50000 418.400000
2488 11977 3003 1 109.50000 418.400000
3002 11977 3003 1 109.50000 418.400000
1373 11978 3004 1 109.50000 418.400000
1373 11978 3005 1 109.50000 418.400000
1373 11978 3006 1 109.50000 418.400000
3004 11978 3005 1 109.50000 418.400000
3004 11978 3006 1 109.50000 418.400000
3005 11978 3006 1 109.50000 418.400000
3007 11979 3009 1 109.50000 418.400000
3007 11979 3010 1 109.50000 418.400000
3007 11979 8894 1 109.50000 418.400000
3009 11979 3010 1 109.50000 418.400000
3009 11979 8894 1 109.50000 418.400000
3010 11979 8894 1 109.50000 418.400000
3011 11980 3012 1 109.50000 418.400000
3011 11980 3013 1 109.50000 418.400000
3011 11980 3014 1 109.50000 418.400000
3012 11980 3013 1 109.50000 418.400000
3012 11980 3014 1 109.50000 418.400000
3013 11980 3014 1 109.50000 418.400000
2504 11981 3015 1 109.50000 418.400000
2504 11981 3016 1 109.50000 418.400000
2504 11981 3017 1 109.50000 418.400000
3015 11981 3016 1 109.50000 418.400000
3015 11981 3017 1 109.50000 418.400000
3016 11981 3017 1 109.50000 418.400000
3018 11982 3019 1 109.50000 418.400000
3018 11982 3020 1 109.50000 418.400000
3018 11982 3021 1 109.50000 418.400000
3019 11982 3020 1 109.50000 418.400000
3019 11982 3021 1 109.50000 418.400000
3020 11982 3021 1 109.50000 418.400000
2117 11983 3022 1 109.50000 418.400000
2117 11983 3023 1 109.50000 418.400000
2117 11983 3024 1 109.50000 418.400000
3022 11983 3023 1 109.50000 418.400000
3022 11983 3024 1 109.50000 418.400000
3023 11983 3024 1 109.50000 418.400000
3025 11984 3026 1 109.50000 418.400000
3025 11984 3027 1 109.50000 418.400000
3025 11984 3028 1 109.50000 418.400000
3026 11984 3027 1 109.50000 418.400000
3026 11984 3028 1 109.50000 418.400000
3027 11984 3028 1 109.50000 418.400000
3029 11985 3030 1 109.50000 418.400000
3029 11985 3031 1 109.50000 418.400000
3029 11985 3032 1 109.50000 418.400000
3030 11985 3031 1 109.50000 418.400000
3030 11985 3032 1 109.50000 418.400000
3031 11985 3032 1 109.50000 418.400000
3033 11986 3034 1 109.50000 418.400000
3033 11986 3035 1 109.50000 418.400000
3033 11986 11207 1 109.50000 418.400000
3034 11986 3035 1 109.50000 418.400000
3034 11986 11207 1 109.50000 418.400000
3035 11986 11207 1 109.50000 418.400000
2597 11987 3036 1 109.50000 418.400000
2597 11987 3037 1 109.50000 418.400000
2597 11987 3038 1 109.50000 418.400000
3036 11987 3037 1 109.50000 418.400000
3036 11987 3038 1 109.50000 418.400000
3037 11987 3038 1 109.50000 418.400000
3039 11988 3040 1 109.50000 418.400000
3039 11988 3041 1 109.50000 418.400000
3039 11988 10913 1 109.50000 418.400000
3040 11988 3041 1 109.50000 418.400000
3040 11988 10913 1 109.50000 418.400000
3041 11988 10913 1 109.50000 418.400000
3043 11989 3044 1 109.50000 418.400000
3043 11989 3045 1 109.50000 418.400000
3043 11989 5380 1 109.50000 418.400000
3044 11989 3045 1 109.50000 418.400000
3044 11989 5380 1 109.50000 418.400000
3045 11989 5380 1 109.50000 418.400000
3049 11990 3050 1 109.50000 418.400000
3049 11990 3051 1 109.50000 418.400000
3049 11990 3052 1 109.50000 418.400000
3050 11990 3051 1 109.50000 418.400000
3050 11990 3052 1 109.50000 418.400000
3051 11990 3052 1 109.50000 418.400000
303 11991 3053 1 109.50000 418.400000
303 11991 3054 1 109.50000 418.400000
303 11991 3055 1 109.50000 418.400000
3053 11991 3054 1 109.50000 418.400000
3053 11991 3055 1 109.50000 418.400000
3054 11991 3055 1 109.50000 418.400000
918 11992 1107 1 109.50000 418.400000
918 11992 1108 1 109.50000 418.400000
918 11992 1109 1 109.50000 418.400000
1107 11992 1108 1 109.50000 418.400000
1107 11992 1109 1 109.50000 418.400000
1108 11992 1109 1 109.50000 418.400000
3058 11993 3059 1 109.50000 418.400000
3058 11993 3060 1 109.50000 418.400000
3058 11993 8970 1 109.50000 418.400000
3059 11993 3060 1 109.50000 418.400000
3059 11993 8970 1 109.50000 418.400000
3060 11993 8970 1 109.50000 418.400000
637 11994 1730 1 109.50000 418.400000
637 11994 3061 1 109.50000 418.400000
637 11994 3062 1 109.50000 418.400000
1730 11994 3061 1 109.50000 418.400000
1730 11994 3062 1 109.50000 418.400000
3061 11994 3062 1 109.50000 418.400000
3063 11995 3064 1 109.50000 418.400000
3063 11995 3065 1 109.50000 418.400000
3063 11995 3066 1 109.50000 418.400000
3064 11995 3065 1 109.50000 418.400000
3064 11995 3066 1 109.50000 418.400000
3065 11995 3066 1 109.50000 418.400000
533 11996 3067 1 109.50000 418.400000
533 11996 3068 1 109.50000 418.400000
533 11996 3069 1 109.50000 418.400000
3067 11996 3068 1 109.50000 418.400000
3067 11996 3069 1 109.50000 418.400000
3068 11996 3069 1 109.50000 418.400000
3070 11997 3071 1 109.50000 418.400000
3070 11997 3072 1 109.50000 418.400000
3070 11997 3073 1 109.50000 418.400000
3071 11997 3072 1 109.50000 418.400000
3071 11997 3073 1 109.50000 418.400000
3072 11997 3073 1 109.50000 418.400000
1917 11998 3074 1 109.50000 418.400000
1917 11998 3075 1 109.50000 418.400000
1917 11998 3076 1 109.50000 418.400000
3074 11998 3075 1 109.50000 418.400000
3074 11998 3076 1 109.50000 418.400000
3075 11998 3076 1 109.50000 418.400000
2675 11999 3077 1 109.50000 418.400000
2675 11999 3078 1 109.50000 418.400000
2675 11999 3079 1 109.50000 418.400000
3077 11999 3078 1 109.50000 418.400000
3077 11999 3079 1 109.50000 418.400000
3078 11999 3079 1 109.50000 418.400000
1316 12000 2055 1 109.50000 418.400000
1316 12000 3080 1 109.50000 418.400000
1316 12000 3081 1 109.50000 418.400000
2055 12000 3080 1 109.50000 418.400000
2055 12000 3081 1 109.50000 418.400000
3080 12000 3081 1 109.50000 418.400000
1484 12001 2302 1 109.50000 418.400000
1484 12001 3082 1 109.50000 418.400000
1484 12001 3083 1 109.50000 418.400000
2302 12001 3082 1 109.50000 418.400000
2302 12001 3083 1 109.50000 418.400000
3082 12001 3083 1 109.50000 418.400000
2060 12002 3085 1 109.50000 418.400000
2060 12002 3086 1 109.50000 418.400000
2060 12002 5909 1 109.50000 418.400000
3085 12002 3086 1 109.50000 418.400000
3085 12002 5909 1 109.50000 418.400000
3086 12002 5909 1 109.50000 418.400000
1956 12003 3087 1 109.50000 418.400000
1956 12003 3088 1 109.50000 418.400000
1956 12003 3089 1 109.50000 418.400000
3087 12003 3088 1 109.50000 418.400000
3087 12003 3089 1 109.50000 418.400000
3088 12003 3089 1 109.50000 418.400000
3090 12004 3091 1 109.50000 418.400000
3090 12004 3092 1 109.50000 418.400000
3090 12004 3093 1 109.50000 418.400000
3091 12004 3092 1 109.50000 418.400000
3091 12004 3093 1 109.50000 418.400000
3092 12004 3093 1 109.50000 418.400000
1279 12005 3094 1 109.50000 418.400000
1279 12005 3095 1 109.50000 418.400000
1279 12005 3096 1 109.50000 418.400000
3094 12005 3095 1 109.50000 418.400000
3094 12005 3096 1 109.50000 418.400000
3095 12005 3096 1 109.50000 418.400000
277 12006 3097 1 109.50000 418.400000
277 12006 3098 1 109.50000 418.400000
277 12006 3099 1 109.50000 418.400000
3097 12006 3098 1 109.50000 418.400000
3097 12006 3099 1 109.50000 418.400000
3098 12006 3099 1 109.50000 418.400000
64 12007 3100 1 109.50000 418.400000
64 12007 3101 1 109.50000 418.400000
64 12007 9283 1 109.50000 418.400000
3100 12007 3101 1 109.50000 418.400000
3100 12007 9283 1 109.50000 418.400000
3101 12007 9283 1 109.50000 418.400000
2272 12008 2878 1 109.50000 418.400000
2272 12008 3102 1 109.50000 418.400000
2272 12008 3103 1 109.50000 418.400000
2878 12008 3102 1 109.50000 418.400000
2878 12008 3103 1 109.50000 418.400000
3102 12008 3103 1 109.50000 418.400000
1366 12009 3110 1 109.50000 418.400000
1366 12009 3111 1 109.50000 418.400000
1366 12009 3112 1 109.50000 418.400000
3110 12009 3111 1 109.50000 418.400000
3110 12009 3112 1 109.50000 418.400000
3111 12009 3112 1 109.50000 418.400000
3113 12010 3114 1 109.50000 418.400000
3113 12010 3115 1 109.50000 418.400000
3113 12010 3116 1 109.50000 418.400000
3114 12010 3115 1 109.50000 418.400000
3114 12010 3116 1 109.50000 418.400000
3115 12010 3116 1 109.50000 418.400000
2659 12011 2935 1 109.50000 418.400000
2659 12011 3117 1 109.50000 418.400000
2659 12011 3118 1 109.50000 418.400000
2935 12011 3117 1 109.50000 418.400000
2935 12011 3118 1 109.50000 418.400000
3117 12011 3118 1 109.50000 418.400000
3122 12012 3123 1 109.50000 418.400000
3122 12012 3124 1 109.50000 418.400000
3122 12012 3125 1 109.50000 418.400000
3123 12012 3124 1 109.50000 418.400000
3123 12012 3125 1 109.50000 418.400000
3124 12012 3125 1 109.50000 418.400000
3126 12013 3127 1 109.50000 418.400000
3126 12013 3128 1 109.50000 418.400000
3126 12013 3129 1 109.50000 418.400000
3127 12013 3128 1 109.50000 418.400000
3127 12013 3129 1 109.50000 418.400000
3128 12013 3129 1 109.50000 418.400000
1909 12014 3130 1 109.50000 418.400000
1909 12014 3131 1 109.50000 418.400000
1909 12014 3132 1 109.50000 418.400000
3130 12014 3131 1 109.50000 418.400000
3130 12014 3132 1 109.50000 418.400000
3131 12014 3132 1 109.50000 418.400000
3134 12015 3136 1 109.50000 418.400000
3134 12015 8505 1 109.50000 418.400000
3134 12015 8506 1 109.50000 418.400000
3136 12015 8505 1 109.50000 418.400000
3136 12015 8506 1 109.50000 418.400000
8505 12015 8506 1 109.50000 418.400000
900 12016 3137 1 109.50000 418.400000
900 12016 3138 1 109.50000 418.400000
900 12016 3139 1 109.50000 418.400000
3137 12016 3138 1 109.50000 418.400000
3137 12016 3139 1 109.50000 418.400000
3138 12016 3139 1 109.50000 418.400000
3140 12017 3141 1 109.50000 418.400000
3140 12017 3142 1 109.50000 418.400000
3140 12017 3143 1 109.50000 418.400000
3141 12017 3142 1 109.50000 418.400000
3141 12017 3143 1 109.50000 418.400000
3142 12017 3143 1 109.50000 418.400000
2294 12018 3144 1 109.50000 418.400000
2294 12018 3145 1 109.50000 418.400000
2294 12018 3146 1 109.50000 418.400000
3144 12018 3145 1 109.50000 418.400000
3144 12018 3146 1 109.50000 418.400000
3145 12018 3146 1 109.50000 418.400000
3150 12019 3151 1 109.50000 418.400000
3150 12019 3152 1 109.50000 418.400000
3150 12019 3153 1 109.50000 418.400000
3151 12019 3152 1 109.50000 418.400000
3151 12019 3153 1 109.50000 418.400000
3152 12019 3153 1 109.50000 418.400000
2396 12020 3154 1 109.50000 418.400000
2396 12020 3155 1 109.50000 418.400000
2396 12020 3156 1 109.50000 418.400000
3154 12020 3155 1 109.50000 418.400000
3154 12020 3156 1 109.50000 418.400000
3155 12020 3156 1 109.50000 418.400000
3157 12021 3158 1 109.50000 418.400000
3157 12021 3159 1 109.50000 418.400000
3157 12021 3160 1 109.50000 418.400000
3158 12021 3159 1 109.50000 418.400000
3158 12021 3160 1 109.50000 418.400000
3159 12021 3160 1 109.50000 418.400000
2404 12022 3162 1 109.50000 418.400000
2404 12022 3163 1 109.50000 418.400000
2404 12022 3164 1 109.50000 418.400000
3162 12022 3163 1 109.50000 418.400000
3162 12022 3164 1 109.50000 418.400000
3163 12022 3164 1 109.50000 418.400000
3165 12023 3166 1 109.50000 418.400000
3165 12023 3167 1 109.50000 418.400000
3165 12023 3168 1 109.50000 418.400000
3166 12023 3167 1 109.50000 418.400000
3166 12023 3168 1 109.50000 418.400000
3167 12023 3168 1 109.50000 418.400000
3169 12024 3170 1 109.50000 418.400000
3169 12024 3171 1 109.50000 418.400000
3169 12024 3172 1 109.50000 418.400000
3170 12024 3171 1 109.50000 418.400000
3170 12024 3172 1 109.50000 418.400000
3171 12024 3172 1 109.50000 418.400000
3173 12025 3174 1 109.50000 418.400000
3173 12025 3175 1 109.50000 418.400000
3173 12025 3176 1 109.50000 418.400000
3174 12025 3175 1 109.50000 418.400000
3174 12025 3176 1 109.50000 418.400000
3175 12025 3176 1 109.50000 418.400000
3177 12026 3178 1 109.50000 418.400000
3177 12026 3179 1 109.50000 418.400000
3177 12026 3180 1 109.50000 418.400000
3178 12026 3179 1 109.50000 418.400000
3178 12026 3180 1 109.50000 418.400000
3179 12026 3180 1 109.50000 418.400000
52 12027 3181 1 109.50000 418.400000
52 12027 3182 1 109.50000 418.400000
52 12027 3183 1 109.50000 418.400000
3181 12027 3182 1 109.50000 418.400000
3181 12027 3183 1 109.50000 418.400000
3182 12027 3183 1 109.50000 418.400000
593 12028 3185 1 109.50000 418.400000
593 12028 3186 1 109.50000 418.400000
593 12028 3187 1 109.50000 418.400000
3185 12028 3186 1 109.50000 418.400000
3185 12028 3187 1 109.50000 418.400000
3186 12028 3187 1 109.50000 418.400000
3190 12029 3191 1 109.50000 418.400000
3190 12029 3192 1 109.50000 418.400000
3190 12029 3193 1 109.50000 418.400000
3191 12029 3192 1 109.50000 418.400000
3191 12029 3193 1 109.50000 418.400000
3192 12029 3193 1 109.50000 418.400000
1028 12030 3194 1 109.50000 418.400000
1028 12030 3195 1 109.50000 418.400000
1028 12030 3197 1 109.50000 418.400000
3194 12030 3195 1 109.50000 418.400000
3194 12030 3197 1 109.50000 418.400000
3195 12030 3197 1 109.50000 418.400000
3198 12031 3199 1 109.50000 418.400000
3198 12031 3200 1 109.50000 418.400000
3198 12031 3201 1 109.50000 418.400000
3199 12031 3200 1 109.50000 418.400000
3199 12031 3201 1 109.50000 418.400000
3200 12031 3201 1 109.50000 418.400000
3202 12032 3203 1 109.50000 418.400000
3202 12032 3204 1 109.50000 418.400000
3202 12032 3205 1 109.50000 418.400000
3203 12032 3204 1 109.50000 418.400000
3203 12032 3205 1 109.50000 418.400000
3204 12032 3205 1 109.50000 418.400000
2022 12033 3206 1 109.50000 418.400000
2022 12033 3207 1 109.50000 418.400000
2022 12033 3208 1 109.50000 418.400000
3206 12033 3207 1 109.50000 418.400000
3206 12033 3208 1 109.50000 418.400000
3207 12033 3208 1 109.50000 418.400000
3209 12034 3210 1 109.50000 418.400000
3209 12034 3211 1 109.50000 418.400000
3209 12034 3212 1 109.50000 418.400000
3210 12034 3211 1 109.50000 418.400000
3210 12034 3212 1 109.50000 418.400000
3211 12034 3212 1 109.50000 418.400000
2880 12035 3213 1 109.50000 418.400000
2880 12035 3215 1 109.50000 418.400000
2880 12035 3450 1 109.50000 418.400000
3213 12035 3215 1 109.50000 418.400000
3213 12035 3450 1 109.50000 418.400000
3215 12035 3450 1 109.50000 418.400000
1602 12036 3216 1 109.50000 418.400000
1602 12036 3217 1 109.50000 418.400000
1602 12036 3218 1 109.50000 418.400000
3216 12036 3217 1 109.50000 418.400000
3216 12036 3218 1 109.50000 418.400000
3217 12036 3218 1 109.50000 418.400000
3219 12037 3220 1 109.50000 418.400000
3219 12037 3221 1 109.50000 418.400000
3219 12037 3222 1 109.50000 418.400000
3220 12037 3221 1 109.50000 418.400000
3220 12037 3222 1 109.50000 418.400000
3221 12037 3222 1 109.50000 418.400000
3225 12038 3226 1 109.50000 418.400000
3225 12038 3227 1 109.50000 418.400000
3225 12038 3228 1 109.50000 418.400000
3226 12038 3227 1 109.50000 418.400000
3226 12038 3228 1 109.50000 418.400000
3227 12038 3228 1 109.50000 418.400000
3229 12039 3230 1 109.50000 418.400000
3229 12039 3231 1 109.50000 418.400000
3229 12039 3232 1 109.50000 418.400000
3230 12039 3231 1 109.50000 418.400000
3230 12039 3232 1 109.50000 418.400000
3231 12039 3232 1 109.50000 418.400000
1357 12040 1359 1 109.50000 418.400000
1357 12040 1360 1 109.50000 418.400000
1357 12040 3233 1 109.50000 418.400000
1359 12040 1360 1 109.50000 418.400000
1359 12040 3233 1 109.50000 418.400000
1360 12040 3233 1 109.50000 418.400000
3236 12041 3237 1 109.50000 418.400000
3236 12041 3238 1 109.50000 418.400000
3236 12041 3239 1 109.50000 418.400000
3237 12041 3238 1 109.50000 418.400000
3237 12041 3239 1 109.50000 418.400000
3238 12041 3239 1 109.50000 418.400000
3240 12042 3241 1 109.50000 418.400000
3240 12042 3242 1 109.50000 418.400000
3240 12042 8115 1 109.50000 418.400000
3241 12042 3242 1 109.50000 418.400000
3241 12042 8115 1 109.50000 418.400000
3242 12042 8115 1 109.50000 418.400000
3093 12043 3243 1 109.50000 418.400000
3093 12043 3244 1 109.50000 418.400000
3093 12043 3245 1 109.50000 418.400000
3243 12043 3244 1 109.50000 418.400000
3243 12043 3245 1 109.50000 418.400000
3244 12043 3245 1 109.50000 418.400000
3246 12044 3247 1 109.50000 418.400000
3246 12044 3248 1 109.50000 418.400000
3246 12044 3249 1 109.50000 418.400000
3247 12044 3248 1 109.50000 418.400000
3247 12044 3249 1 109.50000 418.400000
3248 12044 3249 1 109.50000 418.400000
1492 12045 3250 1 109.50000 418.400000
1492 12045 3251 1 109.50000 418.400000
1492 12045 3252 1 109.50000 418.400000
3250 12045 3251 1 109.50000 418.400000
3250 12045 3252 1 109.50000 418.400000
3251 12045 3252 1 109.50000 418.400000
139 12046 3253 1 109.50000 418.400000
139 12046 3254 1 109.50000 418.400000
139 12046 3255 1 109.50000 418.400000
3253 12046 3254 1 109.50000 418.400000
3253 12046 3255 1 109.50000 418.400000
3254 12046 3255 1 109.50000 418.400000
3256 12047 3257 1 109.50000 418.400000
3256 12047 3258 1 109.50000 418.400000
3256 12047 3259 1 109.50000 418.400000
3257 12047 3258 1 109.50000 418.400000
3257 12047 3259 1 109.50000 418.400000
3258 12047 3259 1 109.50000 418.400000
3260 12048 3261 1 109.50000 418.400000
3260 12048 3262 1 109.50000 418.400000
3260 12048 3263 1 109.50000 418.400000
3261 12048 3262 1 109.50000 418.400000
3261 12048 3263 1 109.50000 418.400000
3262 12048 3263 1 109.50000 418.400000
2707 12049 3217 1 109.50000 418.400000
2707 12049 3222 1 109.50000 418.400000
2707 12049 3264 1 109.50000 418.400000
3217 12049 3222 1 109.50000 418.400000
3217 12049 3264 1 109.50000 418.400000
3222 12049 3264 1 109.50000 418.400000
3265 12050 3266 1 109.50000 418.400000
3265 12050 3267 1 109.50000 418.400000
3265 12050 3268 1 109.50000 418.400000
3266 12050 3267 1 109.50000 418.400000
3266 12050 3268 1 109.50000 418.400000
3267 12050 3268 1 109.50000 418.400000
3269 12051 3270 1 109.50000 418.400000
3269 12051 3271 1 109.50000 418.400000
3269 12051 3272 1 109.50000 418.400000
3270 12051 3271 1 109.50000 418.400000
3270 12051 3272 1 109.50000 418.400000
3271 12051 3272 1 109.50000 418.400000
3273 12052 3274 1 109.50000 418.400000
3273 12052 3275 1 109.50000 418.400000
3273 12052 3276 1 109.50000 418.400000
3274 12052 3275 1 109.50000 418.400000
3274 12052 3276 1 109.50000 418.400000
3275 12052 3276 1 109.50000 418.400000
983 12053 2334 1 109.50000 418.400000
983 12053 3277 1 109.50000 418.400000
983 12053 3278 1 109.50000 418.400000
2334 12053 3277 1 109.50000 418.400000
2334 12053 3278 1 109.50000 418.400000
3277 12053 3278 1 109.50000 418.400000
1301 12054 3279 1 109.50000 418.400000
1301 12054 3280 1 109.50000 418.400000
1301 12054 3281 1 109.50000 418.400000
3279 12054 3280 1 109.50000 418.400000
3279 12054 3281 1 109.50000 418.400000
3280 12054 3281 1 109.50000 418.400000
1671 12055 1764 1 109.50000 418.400000
1671 12055 3286 1 109.50000 418.400000
1671 12055 3287 1 109.50000 418.400000
1764 12055 3286 1 109.50000 418.400000
1764 12055 3287 1 109.50000 418.400000
3286 12055 3287 1 109.50000 418.400000
1409 12056 3288 1 109.50000 418.400000
1409 12056 3289 1 109.50000 418.400000
1409 12056 3290 1 109.50000 418.400000
3288 12056 3289 1 109.50000 418.400000
3288 12056 3290 1 109.50000 418.400000
3289 12056 3290 1 109.50000 418.400000
3292 12057 3293 1 109.50000 418.400000
3292 12057 3294 1 109.50000 418.400000
3292 12057 5550 1 109.50000 418.400000
3293 12057 3294 1 109.50000 418.400000
3293 12057 5550 1 109.50000 418.400000
3294 12057 5550 1 109.50000 418.400000
3167 12058 3295 1 109.50000 418.400000
3167 12058 3296 1 109.50000 418.400000
3167 12058 3297 1 109.50000 418.400000
3295 12058 3296 1 109.50000 418.400000
3295 12058 3297 1 109.50000 418.400000
3296 12058 3297 1 109.50000 418.400000
3299 12059 3300 1 109.50000 418.400000
3299 12059 3301 1 109.50000 418.400000
3299 12059 6492 1 109.50000 418.400000
3300 12059 3301 1 109.50000 418.400000
3300 12059 6492 1 109.50000 418.400000
3301 12059 6492 1 109.50000 418.400000
3305 12060 3306 1 109.50000 418.400000
3305 12060 3307 1 109.50000 418.400000
3305 12060 3308 1 109.50000 418.400000
3306 12060 3307 1 109.50000 418.400000
3306 12060 3308 1 109.50000 418.400000
3307 12060 3308 1 109.50000 418.400000
3309 12061 3310 1 109.50000 418.400000
3309 12061 3311 1 109.50000 418.400000
3309 12061 3312 1 109.50000 418.400000
3310 12061 3311 1 109.50000 418.400000
3310 12061 3312 1 109.50000 418.400000
3311 12061 3312 1 109.50000 418.400000
3313 12062 3314 1 109.50000 418.400000
3313 12062 3315 1 109.50000 418.400000
3313 12062 3316 1 109.50000 418.400000
3314 12062 3315 1 109.50000 418.400000
3314 12062 3316 1 109.50000 418.400000
3315 12062 3316 1 109.50000 418.400000
333 12063 3317 1 109.50000 418.400000
333 12063 3318 1 109.50000 418.400000
333 12063 3319 1 109.50000 418.400000
3317 12063 3318 1 109.50000 418.400000
3317 12063 3319 1 109.50000 418.400000
3318 12063 3319 1 109.50000 418.400000
3152 12064 3320 1 109.50000 418.400000
3152 12064 3321 1 109.50000 418.400000
3152 12064 3322 1 109.50000 418.400000
3320 12064 3321 1 109.50000 418.400000
3320 12064 3322 1 109.50000 418.400000
3321 12064 3322 1 109.50000 418.400000
291 12065 972 1 109.50000 418.400000
291 12065 3323 1 109.50000 418.400000
291 12065 3324 1 109.50000 418.400000
972 12065 3323 1 109.50000 418.400000
972 12065 3324 1 109.50000 418.400000
3323 12065 3324 1 109.50000 418.400000
3325 12066 3326 1 109.50000 418.400000
3325 12066 3327 1 109.50000 418.400000
3325 12066 9134 1 109.50000 418.400000
3326 12066 3327 1 109.50000 418.400000
3326 12066 9134 1 109.50000 418.400000
3327 12066 9134 1 109.50000 418.400000
3329 12067 3330 1 109.50000 418.400000
3329 12067 3331 1 109.50000 418.400000
3329 12067 3332 1 109.50000 418.400000
3330 12067 3331 1 109.50000 418.400000
3330 12067 3332 1 109.50000 418.400000
3331 12067 3332 1 109.50000 418.400000
3340 12068 3341 1 109.50000 418.400000
3340 12068 3342 1 109.50000 418.400000
3340 12068 3343 1 109.50000 418.400000
3341 12068 3342 1 109.50000 418.400000
3341 12068 3343 1 109.50000 418.400000
3342 12068 3343 1 109.50000 418.400000
3344 12069 3345 1 109.50000 418.400000
3344 12069 3346 1 109.50000 418.400000
3344 12069 3347 1 109.50000 418.400000
3345 12069 3346 1 109.50000 418.400000
3345 12069 3347 1 109.50000 418.400000
3346 12069 3347 1 109.50000 418.400000
1502 12070 3348 1 109.50000 418.400000
1502 12070 3349 1 109.50000 418.400000
1502 12070 3350 1 109.50000 418.400000
3348 12070 3349 1 109.50000 418.400000
3348 12070 3350 1 109.50000 418.400000
3349 12070 3350 1 109.50000 418.400000
2919 12071 3354 1 109.50000 418.400000
2919 12071 3355 1 109.50000 418.400000
2919 12071 3356 1 109.50000 418.400000
3354 12071 3355 1 109.50000 418.400000
3354 12071 3356 1 109.50000 418.400000
3355 12071 3356 1 109.50000 418.400000
3358 12072 3359 1 109.50000 418.400000
3358 12072 3360 1 109.50000 418.400000
3358 12072 3739 1 109.50000 418.400000
3359 12072 3360 1 109.50000 418.400000
3359 12072 3739 1 109.50000 418.400000
3360 12072 3739 1 109.50000 418.400000
3038 12073 3361 1 109.50000 418.400000
3038 12073 3362 1 109.50000 418.400000
3038 12073 3363 1 109.50000 418.400000
3361 12073 3362 1 109.50000 418.400000
3361 12073 3363 1 109.50000 418.400000
3362 12073 3363 1 109.50000 418.400000
1406 12074 3364 1 109.50000 418.400000
1406 12074 3365 1 109.50000 418.400000
1406 12074 3367 1 109.50000 418.400000
3364 12074 3365 1 109.50000 418.400000
3364 12074 3367 1 109.50000 418.400000
3365 12074 3367 1 109.50000 418.400000
1574 12075 3368 1 109.50000 418.400000
1574 12075 3369 1 109.50000 418.400000
1574 12075 3370 1 109.50000 418.400000
3368 12075 3369 1 109.50000 418.400000
3368 12075 3370 1 109.50000 418.400000
3369 12075 3370 1 109.50000 418.400000
3372 12076 3373 1 109.50000 418.400000
3372 12076 3374 1 109.50000 418.400000
3372 12076 3375 1 109.50000 418.400000
3373 12076 3374 1 109.50000 418.400000
3373 12076 3375 1 109.50000 418.400000
3374 12076 3375 1 109.50000 418.400000
3381 12077 3382 1 109.50000 418.400000
3381 12077 3383 1 109.50000 418.400000
3381 12077 3384 1 109.50000 418.400000
3382 12077 3383 1 109.50000 418.400000
3382 12077 3384 1 109.50000 418.400000
3383 12077 3384 1 109.50000 418.400000
3388 12078 3389 1 109.50000 418.400000
3388 12078 3390 1 109.50000 418.400000
3388 12078 3391 1 109.50000 418.400000
3389 12078 3390 1 109.50000 418.400000
3389 12078 3391 1 109.50000 418.400000
3390 12078 3391 1 109.50000 418.400000
3392 12079 3393 1 109.50000 418.400000
3392 12079 3394 1 109.50000 418.400000
3392 12079 3395 1 109.50000 418.400000
3393 12079 3394 1 109.50000 418.400000
3393 12079 3395 1 109.50000 418.400000
3394 12079 3395 1 109.50000 418.400000
513 12080 3396 1 109.50000 418.400000
513 12080 3397 1 109.50000 418.400000
513 12080 3398 1 109.50000 418.400000
3396 12080 3397 1 109.50000 418.400000
3396 12080 3398 1 109.50000 418.400000
3397 12080 3398 1 109.50000 418.400000
588 12081 3399 1 109.50000 418.400000
588 12081 3400 1 109.50000 418.400000
588 12081 3401 1 109.50000 418.400000
3399 12081 3400 1 109.50000 418.400000
3399 12081 3401 1 109.50000 418.400000
3400 12081 3401 1 109.50000 418.400000
3402 12082 3403 1 109.50000 418.400000
3402 12082 3404 1 109.50000 418.400000
3402 12082 3405 1 109.50000 418.400000
3403 12082 3404 1 109.50000 418.400000
3403 12082 3405 1 109.50000 418.400000
3404 12082 3405 1 109.50000 418.400000
26 12083 2286 1 109.50000 418.400000
26 12083 3213 1 109.50000 418.400000
26 12083 3406 1 109.50000 418.400000
2286 12083 3213 1 109.50000 418.400000
2286 12083 3406 1 109.50000 418.400000
3213 12083 3406 1 109.50000 418.400000
524 12084 3408 1 109.50000 418.400000
524 12084 3409 1 109.50000 418.400000
524 12084 4419 1 109.50000 418.400000
3408 12084 3409 1 109.50000 418.400000
3408 12084 4419 1 109.50000 418.400000
3409 12084 4419 1 109.50000 418.400000
3410 12085 3411 1 109.50000 418.400000
3410 12085 3412 1 109.50000 418.400000
3410 12085 3413 1 109.50000 418.400000
3411 12085 3412 1 109.50000 418.400000
3411 12085 3413 1 109.50000 418.400000
3412 12085 3413 1 109.50000 418.400000
1284 12086 3414 1 109.50000 418.400000
1284 12086 3416 1 109.50000 418.400000
1284 12086 5927 1 109.50000 418.400000
3414 12086 3416 1 109.50000 418.400000
3414 12086 5927 1 109.50000 418.400000
3416 12086 5927 1 109.50000 418.400000
3420 12087 3421 1 109.50000 418.400000
3420 12087 3422 1 109.50000 418.400000
3420 12087 3423 1 109.50000 418.400000
3421 12087 3422 1 109.50000 418.400000
3421 12087 3423 1 109.50000 418.400000
3422 12087 3423 1 109.50000 418.400000
3426 12088 3427 1 109.50000 418.400000
3426 12088 3428 1 109.50000 418.400000
3426 12088 3429 1 109.50000 418.400000
3427 12088 3428 1 109.50000 418.400000
3427 12088 3429 1 109.50000 418.400000
3428 12088 3429 1 109.50000 418.400000
3023 12089 3132 1 109.50000 418.400000
3023 12089 3432 1 109.50000 418.400000
3023 12089 3433 1 109.50000 418.400000
3132 12089 3432 1 109.50000 418.400000
3132 12089 3433 1 109.50000 418.400000
3432 12089 3433 1 109.50000 418.400000
3435 12090 3436 1 109.50000 418.400000
3435 12090 3437 1 109.50000 418.400000
3435 12090 3438 1 109.50000 418.400000
3436 12090 3437 1 109.50000 418.400000
3436 12090 3438 1 109.50000 418.400000
3437 12090 3438 1 109.50000 418.400000
3439 12091 3440 1 109.50000 418.400000
3439 12091 3441 1 109.50000 418.400000
3439 12091 3442 1 109.50000 418.400000
3440 12091 3441 1 109.50000 418.400000
3440 12091 3442 1 109.50000 418.400000
3441 12091 3442 1 109.50000 418.400000
2513 12092 2832 1 109.50000 418.400000
2513 12092 3374 1 109.50000 418.400000
2513 12092 3443 1 109.50000 418.400000
2832 12092 3374 1 109.50000 418.400000
2832 12092 3443 1 109.50000 418.400000
3374 12092 3443 1 109.50000 418.400000
3444 12093 3445 1 109.50000 418.400000
3444 12093 3446 1 109.50000 418.400000
3444 12093 3447 1 109.50000 418.400000
3445 12093 3446 1 109.50000 418.400000
3445 12093 3447 1 109.50000 418.400000
3446 12093 3447 1 109.50000 418.400000
3448 12094 3449 1 109.50000 418.400000
3448 12094 3450 1 109.50000 418.400000
3448 12094 3451 1 109.50000 418.400000
3449 12094 3450 1 109.50000 418.400000
3449 12094 3451 1 109.50000 418.400000
3450 12094 3451 1 109.50000 418.400000
56 12095 2671 1 109.50000 418.400000
56 12095 3452 1 109.50000 418.400000
56 12095 3453 1 109.50000 418.400000
2671 12095 3452 1 109.50000 418.400000
2671 12095 3453 1 109.50000 418.400000
3452 12095 3453 1 109.50000 418.400000
1571 12096 3454 1 109.50000 418.400000
1571 12096 3455 1 109.50000 418.400000
1571 12096 3456 1 109.50000 418.400000
3454 12096 3455 1 109.50000 418.400000
3454 12096 3456 1 109.50000 418.400000
3455 12096 3456 1 109.50000 418.400000
1439 12097 1472 1 109.50000 418.400000
1439 12097 3457 1 109.50000 418.400000
1439 12097 3459 1 109.50000 418.400000
1472 12097 3457 1 109.50000 418.400000
1472 12097 3459 1 109.50000 418.400000
3457 12097 3459 1 109.50000 418.400000
3460 12098 3461 1 109.50000 418.400000
3460 12098 3462 1 109.50000 418.400000
3460 12098 3463 1 109.50000 418.400000
3461 12098 3462 1 109.50000 418.400000
3461 12098 3463 1 109.50000 418.400000
3462 12098 3463 1 109.50000 418.400000
3464 12099 3465 1 109.50000 418.400000
3464 12099 3466 1 109.50000 418.400000
3464 12099 3467 1 109.50000 418.400000
3465 12099 3466 1 109.50000 418.400000
3465 12099 3467 1 109.50000 418.400000
3466 12099 3467 1 109.50000 418.400000
2460 12100 3468 1 109.50000 418.400000
2460 12100 3469 1 109.50000 418.400000
2460 12100 3470 1 109.50000 418.400000
3468 12100 3469 1 109.50000 418.400000
3468 12100 3470 1 109.50000 418.400000
3469 12100 3470 1 109.50000 418.400000
3471 12101 3472 1 109.50000 418.400000
3471 12101 3473 1 109.50000 418.400000
3471 12101 3474 1 109.50000 418.400000
3472 12101 3473 1 109.50000 418.400000
3472 12101 3474 1 109.50000 418.400000
3473 12101 3474 1 109.50000 418.400000
2365 12102 3434 1 109.50000 418.400000
2365 12102 3475 1 109.50000 418.400000
2365 12102 3476 1 109.50000 418.400000
3434 12102 3475 1 109.50000 418.400000
3434 12102 3476 1 109.50000 418.400000
3475 12102 3476 1 109.50000 418.400000
3480 12103 3481 1 109.50000 418.400000
3480 12103 3482 1 109.50000 418.400000
3480 12103 3483 1 109.50000 418.400000
3481 12103 3482 1 109.50000 418.400000
3481 12103 3483 1 109.50000 418.400000
3482 12103 3483 1 109.50000 418.400000
784 12104 2738 1 109.50000 418.400000
784 12104 3484 1 109.50000 418.400000
784 12104 3485 1 109.50000 418.400000
2738 12104 3484 1 109.50000 418.400000
2738 12104 3485 1 109.50000 418.400000
3484 12104 3485 1 109.50000 418.400000
729 12105 3489 1 109.50000 418.400000
729 12105 3490 1 109.50000 418.400000
729 12105 3491 1 109.50000 418.400000
3489 12105 3490 1 109.50000 418.400000
3489 12105 3491 1 109.50000 418.400000
3490 12105 3491 1 109.50000 418.400000
3495 12106 3496 1 109.50000 418.400000
3495 12106 3497 1 109.50000 418.400000
3495 12106 3498 1 109.50000 418.400000
3496 12106 3497 1 109.50000 418.400000
3496 12106 3498 1 109.50000 418.400000
3497 12106 3498 1 109.50000 418.400000
3499 12107 3500 1 109.50000 418.400000
3499 12107 3501 1 109.50000 418.400000
3499 12107 3502 1 109.50000 418.400000
3500 12107 3501 1 109.50000 418.400000
3500 12107 3502 1 109.50000 418.400000
3501 12107 3502 1 109.50000 418.400000
1565 12108 3503 1 109.50000 418.400000
1565 12108 3504 1 109.50000 418.400000
1565 12108 3505 1 109.50000 418.400000
3503 12108 3504 1 109.50000 418.400000
3503 12108 3505 1 109.50000 418.400000
3504 12108 3505 1 109.50000 418.400000
3506 12109 3507 1 109.50000 418.400000
3506 12109 3508 1 109.50000 418.400000
3506 12109 3509 1 109.50000 418.400000
3507 12109 3508 1 109.50000 418.400000
3507 12109 3509 1 109.50000 418.400000
3508 12109 3509 1 109.50000 418.400000
3510 12110 3511 1 109.50000 418.400000
3510 12110 3512 1 109.50000 418.400000
3510 12110 3513 1 109.50000 418.400000
3511 12110 3512 1 109.50000 418.400000
3511 12110 3513 1 109.50000 418.400000
3512 12110 3513 1 109.50000 418.400000
3214 12111 3215 1 109.50000 418.400000
3214 12111 3514 1 109.50000 418.400000
3214 12111 3515 1 109.50000 418.400000
3215 12111 3514 1 109.50000 418.400000
3215 12111 3515 1 109.50000 418.400000
3514 12111 3515 1 109.50000 418.400000
267 12112 3516 1 109.50000 418.400000
267 12112 3517 1 109.50000 418.400000
267 12112 9304 1 109.50000 418.400000
3516 12112 3517 1 109.50000 418.400000
3516 12112 9304 1 109.50000 418.400000
3517 12112 9304 1 109.50000 418.400000
903 12113 3518 1 109.50000 418.400000
903 12113 3519 1 109.50000 418.400000
903 12113 3520 1 109.50000 418.400000
3518 12113 3519 1 109.50000 418.400000
3518 12113 3520 1 109.50000 418.400000
3519 12113 3520 1 109.50000 418.400000
3521 12114 3522 1 109.50000 418.400000
3521 12114 3523 1 109.50000 418.400000
3521 12114 3524 1 109.50000 418.400000
3522 12114 3523 1 109.50000 418.400000
3522 12114 3524 1 109.50000 418.400000
3523 12114 3524 1 109.50000 418.400000
219 12115 3528 1 109.50000 418.400000
219 12115 3529 1 109.50000 418.400000
219 12115 3530 1 109.50000 418.400000
3528 12115 3529 1 109.50000 418.400000
3528 12115 3530 1 109.50000 418.400000
3529 12115 3530 1 109.50000 418.400000
3531 12116 3532 1 109.50000 418.400000
3531 12116 3533 1 109.50000 418.400000
3531 12116 3534 1 109.50000 418.400000
3532 12116 3533 1 109.50000 418.400000
3532 12116 3534 1 109.50000 418.400000
3533 12116 3534 1 109.50000 418.400000
720 12117 3535 1 109.50000 418.400000
720 12117 3536 1 109.50000 418.400000
720 12117 3537 1 109.50000 418.400000
3535 12117 3536 1 109.50000 418.400000
3535 12117 3537 1 109.50000 418.400000
3536 12117 3537 1 109.50000 418.400000
3538 12118 3539 1 109.50000 418.400000
3538 12118 3540 1 109.50000 418.400000
3538 12118 3541 1 109.50000 418.400000
3539 12118 3540 1 109.50000 418.400000
3539 12118 3541 1 109.50000 418.400000
3540 12118 3541 1 109.50000 418.400000
3542 12119 3543 1 109.50000 418.400000
3542 12119 3544 1 109.50000 418.400000
3542 12119 3545 1 109.50000 418.400000
3543 12119 3544 1 109.50000 418.400000
3543 12119 3545 1 109.50000 418.400000
3544 12119 3545 1 109.50000 418.400000
1743 12120 3546 1 109.50000 418.400000
1743 12120 3547 1 109.50000 418.400000
1743 12120 3548 1 109.50000 418.400000
3546 12120 3547 1 109.50000 418.400000
3546 12120 3548 1 109.50000 418.400000
3547 12120 3548 1 109.50000 418.400000
3549 12121 3550 1 109.50000 418.400000
3549 12121 3551 1 109.50000 418.400000
3549 12121 3552 1 109.50000 418.400000
3550 12121 3551 1 109.50000 418.400000
3550 12121 3552 1 109.50000 418.400000
3551 12121 3552 1 109.50000 418.400000
1886 12122 2850 1 109.50000 418.400000
1886 12122 3553 1 109.50000 418.400000
1886 12122 3554 1 109.50000 418.400000
2850 12122 3553 1 109.50000 418.400000
2850 12122 3554 1 109.50000 418.400000
3553 12122 3554 1 109.50000 418.400000
3555 12123 3556 1 109.50000 418.400000
3555 12123 3557 1 109.50000 418.400000
3555 12123 3558 1 109.50000 418.400000
3556 12123 3557 1 109.50000 418.400000
3556 12123 3558 1 109.50000 418.400000
3557 12123 3558 1 109.50000 418.400000
3563 12124 3564 1 109.50000 418.400000
3563 12124 6283 1 109.50000 418.400000
3563 12124 10332 1 109.50000 418.400000
3564 12124 6283 1 109.50000 418.400000
3564 12124 10332 1 109.50000 418.400000
6283 12124 10332 1 109.50000 418.400000
3571 12125 3572 1 109.50000 418.400000
3571 12125 3573 1 109.50000 418.400000
3571 12125 3574 1 109.50000 418.400000
3572 12125 3573 1 109.50000 418.400000
3572 12125 3574 1 109.50000 418.400000
3573 12125 3574 1 109.50000 418.400000
745 12126 3455 1 109.50000 418.400000
745 12126 3575 1 109.50000 418.400000
745 12126 3576 1 109.50000 418.400000
3455 12126 3575 1 109.50000 418.400000
3455 12126 3576 1 109.50000 418.400000
3575 12126 3576 1 109.50000 418.400000
1648 12127 1649 1 109.50000 418.400000
1648 12127 3578 1 109.50000 418.400000
1648 12127 3579 1 109.50000 418.400000
1649 12127 3578 1 109.50000 418.400000
1649 12127 3579 1 109.50000 418.400000
3578 12127 3579 1 109.50000 418.400000
3002 12128 3580 1 109.50000 418.400000
3002 12128 3581 1 109.50000 418.400000
3002 12128 3582 1 109.50000 418.400000
3580 12128 3581 1 109.50000 418.400000
3580 12128 3582 1 109.50000 418.400000
3581 12128 3582 1 109.50000 418.400000
755 12129 2127 1 109.50000 418.400000
755 12129 3436 1 109.50000 418.400000
755 12129 3583 1 109.50000 418.400000
2127 12129 3436 1 109.50000 418.400000
2127 12129 3583 1 109.50000 418.400000
3436 12129 3583 1 109.50000 418.400000
286 12130 3584 1 109.50000 418.400000
286 12130 3585 1 109.50000 418.400000
286 12130 3586 1 109.50000 418.400000
3584 12130 3585 1 109.50000 418.400000
3584 12130 3586 1 109.50000 418.400000
3585 12130 3586 1 109.50000 418.400000
3588 12131 3589 1 109.50000 418.400000
3588 12131 3590 1 109.50000 418.400000
3588 12131 5393 1 109.50000 418.400000
3589 12131 3590 1 109.50000 418.400000
3589 12131 5393 1 109.50000 418.400000
3590 12131 5393 1 109.50000 418.400000
3591 12132 3592 1 109.50000 418.400000
3591 12132 3593 1 109.50000 418.400000
3591 12132 3594 1 109.50000 418.400000
3592 12132 3593 1 109.50000 418.400000
3592 12132 3594 1 109.50000 418.400000
3593 12132 3594 1 109.50000 418.400000
2446 12133 3595 1 109.50000 418.400000
2446 12133 3596 1 109.50000 418.400000
2446 12133 3597 1 109.50000 418.400000
3595 12133 3596 1 109.50000 418.400000
3595 12133 3597 1 109.50000 418.400000
3596 12133 3597 1 109.50000 418.400000
644 12134 3598 1 109.50000 418.400000
644 12134 3599 1 109.50000 418.400000
644 12134 3600 1 109.50000 418.400000
3598 12134 3599 1 109.50000 418.400000
3598 12134 3600 1 109.50000 418.400000
3599 12134 3600 1 109.50000 418.400000
612 12135 3602 1 109.50000 418.400000
612 12135 3603 1 109.50000 418.400000
612 12135 3604 1 109.50000 418.400000
3602 12135 3603 1 109.50000 418.400000
3602 12135 3604 1 109.50000 418.400000
3603 12135 3604 1 109.50000 418.400000
3605 12136 3606 1 109.50000 418.400000
3605 12136 3607 1 109.50000 418.400000
3605 12136 3608 1 109.50000 418.400000
3606 12136 3607 1 109.50000 418.400000
3606 12136 3608 1 109.50000 418.400000
3607 12136 3608 1 109.50000 418.400000
3609 12137 3610 1 109.50000 418.400000
3609 12137 3611 1 109.50000 418.400000
3609 12137 3612 1 109.50000 418.400000
3610 12137 3611 1 109.50000 418.400000
3610 12137 3612 1 109.50000 418.400000
3611 12137 3612 1 109.50000 418.400000
3613 12138 3614 1 109.50000 418.400000
3613 12138 3615 1 109.50000 418.400000
3613 12138 3616 1 109.50000 418.400000
3614 12138 3615 1 109.50000 418.400000
3614 12138 3616 1 109.50000 418.400000
3615 12138 3616 1 109.50000 418.400000
1499 12139 1500 1 109.50000 418.400000
1499 12139 3618 1 109.50000 418.400000
1499 12139 3619 1 109.50000 418.400000
1500 12139 3618 1 109.50000 418.400000
1500 12139 3619 1 109.50000 418.400000
3618 12139 3619 1 109.50000 418.400000
855 12140 3620 1 109.50000 418.400000
855 12140 3621 1 109.50000 418.400000
855 12140 3622 1 109.50000 418.400000
3620 12140 3621 1 109.50000 418.400000
3620 12140 3622 1 109.50000 418.400000
3621 12140 3622 1 109.50000 418.400000
3623 12141 3624 1 109.50000 418.400000
3623 12141 3626 1 109.50000 418.400000
3623 12141 6768 1 109.50000 418.400000
3624 12141 3626 1 109.50000 418.400000
3624 12141 6768 1 109.50000 418.400000
3626 12141 6768 1 109.50000 418.400000
543 12142 3629 1 109.50000 418.400000
543 12142 3631 1 109.50000 418.400000
543 12142 7820 1 109.50000 418.400000
3629 12142 3631 1 109.50000 418.400000
3629 12142 7820 1 109.50000 418.400000
3631 12142 7820 1 109.50000 418.400000
669 12143 3632 1 109.50000 418.400000
669 12143 3633 1 109.50000 418.400000
669 12143 3634 1 109.50000 418.400000
3632 12143 3633 1 109.50000 418.400000
3632 12143 3634 1 109.50000 418.400000
3633 12143 3634 1 109.50000 418.400000
641 12144 1555 1 109.50000 418.400000
641 12144 3636 1 109.50000 418.400000
641 12144 3637 1 109.50000 418.400000
1555 12144 3636 1 109.50000 418.400000
1555 12144 3637 1 109.50000 418.400000
3636 12144 3637 1 109.50000 418.400000
3638 12145 3639 1 109.50000 418.400000
3638 12145 3640 1 109.50000 418.400000
3638 12145 3641 1 109.50000 418.400000
3639 12145 3640 1 109.50000 418.400000
3639 12145 3641 1 109.50000 418.400000
3640 12145 3641 1 109.50000 418.400000
1766 12146 3646 1 109.50000 418.400000
1766 12146 3647 1 109.50000 418.400000
1766 12146 3648 1 109.50000 418.400000
3646 12146 3647 1 109.50000 418.400000
3646 12146 3648 1 109.50000 418.400000
3647 12146 3648 1 109.50000 418.400000
2436 12147 3259 1 109.50000 418.400000
2436 12147 3649 1 109.50000 418.400000
2436 12147 3650 1 109.50000 418.400000
3259 12147 3649 1 109.50000 418.400000
3259 12147 3650 1 109.50000 418.400000
3649 12147 3650 1 109.50000 418.400000
2845 12148 3651 1 109.50000 418.400000
2845 12148 3652 1 109.50000 418.400000
2845 12148 3653 1 109.50000 418.400000
3651 12148 3652 1 109.50000 418.400000
3651 12148 3653 1 109.50000 418.400000
3652 12148 3653 1 109.50000 418.400000
3654 12149 3656 1 109.50000 418.400000
3654 12149 3657 1 109.50000 418.400000
3654 12149 4332 1 109.50000 418.400000
3656 12149 3657 1 109.50000 418.400000
3656 12149 4332 1 109.50000 418.400000
3657 12149 4332 1 109.50000 418.400000
1744 12150 3658 1 109.50000 418.400000
1744 12150 3659 1 109.50000 418.400000
1744 12150 3660 1 109.50000 418.400000
3658 12150 3659 1 109.50000 418.400000
3658 12150 3660 1 109.50000 418.400000
3659 12150 3660 1 109.50000 418.400000
3032 12151 3661 1 109.50000 418.400000
3032 12151 3662 1 109.50000 418.400000
3032 12151 3663 1 109.50000 418.400000
3661 12151 3662 1 109.50000 418.400000
3661 12151 3663 1 109.50000 418.400000
3662 12151 3663 1 109.50000 418.400000
3664 12152 3665 1 109.50000 418.400000
3664 12152 3666 1 109.50000 418.400000
3664 12152 3667 1 109.50000 418.400000
3665 12152 3666 1 109.50000 418.400000
3665 12152 3667 1 109.50000 418.400000
3666 12152 3667 1 109.50000 418.400000
3668 12153 3669 1 109.50000 418.400000
3668 12153 3670 1 109.50000 418.400000
3668 12153 3671 1 109.50000 418.400000
3669 12153 3670 1 109.50000 418.400000
3669 12153 3671 1 109.50000 418.400000
3670 12153 3671 1 109.50000 418.400000
3672 12154 3673 1 109.50000 418.400000
3672 12154 3674 1 109.50000 418.400000
3672 12154 3675 1 109.50000 418.400000
3673 12154 3674 1 109.50000 418.400000
3673 12154 3675 1 109.50000 418.400000
3674 12154 3675 1 109.50000 418.400000
2216 12155 3678 1 109.50000 418.400000
2216 12155 3679 1 109.50000 418.400000
2216 12155 3680 1 109.50000 418.400000
3678 12155 3679 1 109.50000 418.400000
3678 12155 3680 1 109.50000 418.400000
3679 12155 3680 1 109.50000 418.400000
1802 12156 3274 1 109.50000 418.400000
1802 12156 3681 1 109.50000 418.400000
1802 12156 3682 1 109.50000 418.400000
3274 12156 3681 1 109.50000 418.400000
3274 12156 3682 1 109.50000 418.400000
3681 12156 3682 1 109.50000 418.400000
822 12157 3683 1 109.50000 418.400000
822 12157 3684 1 109.50000 418.400000
822 12157 3685 1 109.50000 418.400000
3683 12157 3684 1 109.50000 418.400000
3683 12157 3685 1 109.50000 418.400000
3684 12157 3685 1 109.50000 418.400000
2082 12158 2857 1 109.50000 418.400000
2082 12158 3686 1 109.50000 418.400000
2082 12158 3687 1 109.50000 418.400000
2857 12158 3686 1 109.50000 418.400000
2857 12158 3687 1 109.50000 418.400000
3686 12158 3687 1 109.50000 418.400000
2088 12159 3688 1 109.50000 418.400000
2088 12159 3689 1 109.50000 418.400000
2088 12159 3690 1 109.50000 418.400000
3688 12159 3689 1 109.50000 418.400000
3688 12159 3690 1 109.50000 418.400000
3689 12159 3690 1 109.50000 418.400000
1845 12160 3691 1 109.50000 418.400000
1845 12160 3692 1 109.50000 418.400000
1845 12160 3693 1 109.50000 418.400000
3691 12160 3692 1 109.50000 418.400000
3691 12160 3693 1 109.50000 418.400000
3692 12160 3693 1 109.50000 418.400000
3694 12161 3695 1 109.50000 418.400000
3694 12161 3696 1 109.50000 418.400000
3694 12161 3697 1 109.50000 418.400000
3695 12161 3696 1 109.50000 418.400000
3695 12161 3697 1 109.50000 418.400000
3696 12161 3697 1 109.50000 418.400000
3698 12162 3699 1 109.50000 418.400000
3698 12162 3700 1 109.50000 418.400000
3698 12162 3701 1 109.50000 418.400000
3699 12162 3700 1 109.50000 418.400000
3699 12162 3701 1 109.50000 418.400000
3700 12162 3701 1 109.50000 418.400000
950 12163 1396 1 109.50000 418.400000
950 12163 3702 1 109.50000 418.400000
950 12163 3703 1 109.50000 418.400000
1396 12163 3702 1 109.50000 418.400000
1396 12163 3703 1 109.50000 418.400000
3702 12163 3703 1 109.50000 418.400000
3704 12164 3705 1 109.50000 418.400000
3704 12164 3706 1 109.50000 418.400000
3704 12164 3707 1 109.50000 418.400000
3705 12164 3706 1 109.50000 418.400000
3705 12164 3707 1 109.50000 418.400000
3706 12164 3707 1 109.50000 418.400000
3709 12165 3710 1 109.50000 418.400000
3709 12165 3711 1 109.50000 418.400000
3709 12165 10468 1 109.50000 418.400000
3710 12165 3711 1 109.50000 418.400000
3710 12165 10468 1 109.50000 418.400000
3711 12165 10468 1 109.50000 418.400000
3712 12166 3713 1 109.50000 418.400000
3712 12166 3715 1 109.50000 418.400000
3712 12166 6794 1 109.50000 418.400000
3713 12166 3715 1 109.50000 418.400000
3713 12166 6794 1 109.50000 418.400000
3715 12166 6794 1 109.50000 418.400000
3716 12167 3717 1 109.50000 418.400000
3716 12167 3718 1 109.50000 418.400000
3716 12167 3719 1 109.50000 418.400000
3717 12167 3718 1 109.50000 418.400000
3717 12167 3719 1 109.50000 418.400000
3718 12167 3719 1 109.50000 418.400000
1004 12168 3720 1 109.50000 418.400000
1004 12168 3721 1 109.50000 418.400000
1004 12168 3722 1 109.50000 418.400000
3720 12168 3721 1 109.50000 418.400000
3720 12168 3722 1 109.50000 418.400000
3721 12168 3722 1 109.50000 418.400000
673 12169 3723 1 109.50000 418.400000
673 12169 3724 1 109.50000 418.400000
673 12169 3725 1 109.50000 418.400000
3723 12169 3724 1 109.50000 418.400000
3723 12169 3725 1 109.50000 418.400000
3724 12169 3725 1 109.50000 418.400000
2064 12170 2697 1 109.50000 418.400000
2064 12170 3726 1 109.50000 418.400000
2064 12170 3727 1 109.50000 418.400000
2697 12170 3726 1 109.50000 418.400000
2697 12170 3727 1 109.50000 418.400000
3726 12170 3727 1 109.50000 418.400000
3728 12171 3730 1 109.50000 418.400000
3728 12171 3731 1 109.50000 418.400000
3728 12171 6971 1 109.50000 418.400000
3730 12171 3731 1 109.50000 418.400000
3730 12171 6971 1 109.50000 418.400000
3731 12171 6971 1 109.50000 418.400000
3732 12172 3733 1 109.50000 418.400000
3732 12172 3734 1 109.50000 418.400000
3732 12172 3735 1 109.50000 418.400000
3733 12172 3734 1 109.50000 418.400000
3733 12172 3735 1 109.50000 418.400000
3734 12172 3735 1 109.50000 418.400000
18 12173 3738 1 109.50000 418.400000
18 12173 3739 1 109.50000 418.400000
18 12173 3740 1 109.50000 418.400000
3738 12173 3739 1 109.50000 418.400000
3738 12173 3740 1 109.50000 418.400000
3739 12173 3740 1 109.50000 418.400000
3741 12174 3742 1 109.50000 418.400000
3741 12174 3743 1 109.50000 418.400000
3741 12174 3744 1 109.50000 418.400000
3742 12174 3743 1 109.50000 418.400000
3742 12174 3744 1 109.50000 418.400000
3743 12174 3744 1 109.50000 418.400000
3745 12175 3746 1 109.50000 418.400000
3745 12175 3747 1 109.50000 418.400000
3745 12175 3748 1 109.50000 418.400000
3746 12175 3747 1 109.50000 418.400000
3746 12175 3748 1 109.50000 418.400000
3747 12175 3748 1 109.50000 418.400000
1265 12176 3477 1 109.50000 418.400000
1265 12176 3749 1 109.50000 418.400000
1265 12176 3750 1 109.50000 418.400000
3477 12176 3749 1 109.50000 418.400000
3477 12176 3750 1 109.50000 418.400000
3749 12176 3750 1 109.50000 418.400000
3751 12177 3752 1 109.50000 418.400000
3751 12177 3753 1 109.50000 418.400000
3751 12177 3754 1 109.50000 418.400000
3752 12177 3753 1 109.50000 418.400000
3752 12177 3754 1 109.50000 418.400000
3753 12177 3754 1 109.50000 418.400000
3755 12178 3756 1 109.50000 418.400000
3755 12178 3757 1 109.50000 418.400000
3755 12178 3758 1 109.50000 418.400000
3756 12178 3757 1 109.50000 418.400000
3756 12178 3758 1 109.50000 418.400000
3757 12178 3758 1 109.50000 418.400000
2572 12179 2573 1 109.50000 418.400000
2572 12179 3760 1 109.50000 418.400000
2572 12179 3761 1 109.50000 418.400000
2573 12179 3760 1 109.50000 418.400000
2573 12179 3761 1 109.50000 418.400000
3760 12179 3761 1 109.50000 418.400000
2524 12180 3315 1 109.50000 418.400000
2524 12180 3762 1 109.50000 418.400000
2524 12180 3763 1 109.50000 418.400000
3315 12180 3762 1 109.50000 418.400000
3315 12180 3763 1 109.50000 418.400000
3762 12180 3763 1 109.50000 418.400000
1134 12181 1152 1 109.50000 418.400000
1134 12181 3764 1 109.50000 418.400000
1134 12181 3765 1 109.50000 418.400000
1152 12181 3764 1 109.50000 418.400000
1152 12181 3765 1 109.50000 418.400000
3764 12181 3765 1 109.50000 418.400000
3766 12182 3767 1 109.50000 418.400000
3766 12182 3768 1 109.50000 418.400000
3766 12182 3769 1 109.50000 418.400000
3767 12182 3768 1 109.50000 418.400000
3767 12182 3769 1 109.50000 418.400000
3768 12182 3769 1 109.50000 418.400000
958 12183 960 1 109.50000 418.400000
958 12183 2190 1 109.50000 418.400000
958 12183 2818 1 109.50000 418.400000
960 12183 2190 1 109.50000 418.400000
960 12183 2818 1 109.50000 418.400000
2190 12183 2818 1 109.50000 418.400000
1069 12184 3773 1 109.50000 418.400000
1069 12184 3774 1 109.50000 418.400000
1069 12184 3775 1 109.50000 418.400000
3773 12184 3774 1 109.50000 418.400000
3773 12184 3775 1 109.50000 418.400000
3774 12184 3775 1 109.50000 418.400000
3776 12185 3777 1 109.50000 418.400000
3776 12185 3778 1 109.50000 418.400000
3776 12185 3779 1 109.50000 418.400000
3777 12185 3778 1 109.50000 418.400000
3777 12185 3779 1 109.50000 418.400000
3778 12185 3779 1 109.50000 418.400000
3780 12186 3781 1 109.50000 418.400000
3780 12186 3782 1 109.50000 418.400000
3780 12186 3783 1 109.50000 418.400000
3781 12186 3782 1 109.50000 418.400000
3781 12186 3783 1 109.50000 418.400000
3782 12186 3783 1 109.50000 418.400000
2972 12187 3784 1 109.50000 418.400000
2972 12187 3785 1 109.50000 418.400000
2972 12187 3786 1 109.50000 418.400000
3784 12187 3785 1 109.50000 418.400000
3784 12187 3786 1 109.50000 418.400000
3785 12187 3786 1 109.50000 418.400000
3787 12188 3788 1 109.50000 418.400000
3787 12188 3789 1 109.50000 418.400000
3787 12188 3805 1 109.50000 418.400000
3788 12188 3789 1 109.50000 418.400000
3788 12188 3805 1 109.50000 418.400000
3789 12188 3805 1 109.50000 418.400000
2268 12189 3790 1 109.50000 418.400000
2268 12189 3791 1 109.50000 418.400000
2268 12189 3792 1 109.50000 418.400000
3790 12189 3791 1 109.50000 418.400000
3790 12189 3792 1 109.50000 418.400000
3791 12189 3792 1 109.50000 418.400000
3793 12190 3794 1 109.50000 418.400000
3793 12190 3795 1 109.50000 418.400000
3793 12190 3796 1 109.50000 418.400000
3794 12190 3795 1 109.50000 418.400000
3794 12190 3796 1 109.50000 418.400000
3795 12190 3796 1 109.50000 418.400000
3797 12191 3798 1 109.50000 418.400000
3797 12191 3799 1 109.50000 418.400000
3797 12191 3800 1 109.50000 418.400000
3798 12191 3799 1 109.50000 418.400000
3798 12191 3800 1 109.50000 418.400000
3799 12191 3800 1 109.50000 418.400000
3801 12192 3802 1 109.50000 418.400000
3801 12192 3803 1 109.50000 418.400000
3801 12192 3804 1 109.50000 418.400000
3802 12192 3803 1 109.50000 418.400000
3802 12192 3804 1 109.50000 418.400000
3803 12192 3804 1 109.50000 418.400000
3196 12193 3788 1 109.50000 418.400000
3196 12193 3806 1 109.50000 418.400000
3196 12193 3807 1 109.50000 418.400000
3788 12193 3806 1 109.50000 418.400000
3788 12193 3807 1 109.50000 418.400000
3806 12193 3807 1 109.50000 418.400000
3808 12194 3809 1 109.50000 418.400000
3808 12194 3810 1 109.50000 418.400000
3808 12194 3811 1 109.50000 418.400000
3809 12194 3810 1 109.50000 418.400000
3809 12194 3811 1 109.50000 418.400000
3810 12194 3811 1 109.50000 418.400000
3813 12195 3814 1 109.50000 418.400000
3813 12195 3815 1 109.50000 418.400000
3813 12195 9228 1 109.50000 418.400000
3814 12195 3815 1 109.50000 418.400000
3814 12195 9228 1 109.50000 418.400000
3815 12195 9228 1 109.50000 418.400000
1627 12196 3816 1 109.50000 418.400000
1627 12196 3817 1 109.50000 418.400000
1627 12196 3818 1 109.50000 418.400000
3816 12196 3817 1 109.50000 418.400000
3816 12196 3818 1 109.50000 418.400000
3817 12196 3818 1 109.50000 418.400000
3819 12197 3820 1 109.50000 418.400000
3819 12197 3821 1 109.50000 418.400000
3819 12197 3822 1 109.50000 418.400000
3820 12197 3821 1 109.50000 418.400000
3820 12197 3822 1 109.50000 418.400000
3821 12197 3822 1 109.50000 418.400000
2479 12198 3823 1 109.50000 418.400000
2479 12198 3824 1 109.50000 418.400000
2479 12198 3825 1 109.50000 418.400000
3823 12198 3824 1 109.50000 418.400000
3823 12198 3825 1 109.50000 418.400000
3824 12198 3825 1 109.50000 418.400000
591 12199 3826 1 109.50000 418.400000
591 12199 3827 1 109.50000 418.400000
591 12199 3828 1 109.50000 418.400000
3826 12199 3827 1 109.50000 418.400000
3826 12199 3828 1 109.50000 418.400000
3827 12199 3828 1 109.50000 418.400000
2974 12200 3829 1 109.50000 418.400000
2974 12200 3830 1 109.50000 418.400000
2974 12200 3831 1 109.50000 418.400000
3829 12200 3830 1 109.50000 418.400000
3829 12200 3831 1 109.50000 418.400000
3830 12200 3831 1 109.50000 418.400000
3832 12201 3834 1 109.50000 418.400000
3832 12201 4789 1 109.50000 418.400000
3832 12201 9939 1 109.50000 418.400000
3834 12201 4789 1 109.50000 418.400000
3834 12201 9939 1 109.50000 418.400000
4789 12201 9939 1 109.50000 418.400000
2723 12202 3835 1 109.50000 418.400000
2723 12202 3836 1 109.50000 418.400000
2723 12202 3837 1 109.50000 418.400000
3835 12202 3836 1 109.50000 418.400000
3835 12202 3837 1 109.50000 418.400000
3836 12202 3837 1 109.50000 418.400000
3838 12203 3839 1 109.50000 418.400000
3838 12203 3840 1 109.50000 418.400000
3838 12203 3841 1 109.50000 418.400000
3839 12203 3840 1 109.50000 418.400000
3839 12203 3841 1 109.50000 418.400000
3840 12203 3841 1 109.50000 418.400000
3063 12204 3842 1 109.50000 418.400000
3063 12204 3843 1 109.50000 418.400000
3063 12204 3844 1 109.50000 418.400000
3842 12204 3843 1 109.50000 418.400000
3842 12204 3844 1 109.50000 418.400000
3843 12204 3844 1 109.50000 418.400000
3845 12205 3846 1 109.50000 418.400000
3845 12205 3847 1 109.50000 418.400000
3845 12205 3848 1 109.50000 418.400000
3846 12205 3847 1 109.50000 418.400000
3846 12205 3848 1 109.50000 418.400000
3847 12205 3848 1 109.50000 418.400000
1588 12206 3849 1 109.50000 418.400000
1588 12206 3850 1 109.50000 418.400000
1588 12206 3851 1 109.50000 418.400000
3849 12206 3850 1 109.50000 418.400000
3849 12206 3851 1 109.50000 418.400000
3850 12206 3851 1 109.50000 418.400000
1659 12207 3852 1 109.50000 418.400000
1659 12207 3853 1 109.50000 418.400000
1659 12207 3854 1 109.50000 418.400000
3852 12207 3853 1 109.50000 418.400000
3852 12207 3854 1 109.50000 418.400000
3853 12207 3854 1 109.50000 418.400000
3855 12208 3856 1 109.50000 418.400000
3855 12208 3857 1 109.50000 418.400000
3855 12208 3858 1 109.50000 418.400000
3856 12208 3857 1 109.50000 418.400000
3856 12208 3858 1 109.50000 418.400000
3857 12208 3858 1 109.50000 418.400000
3859 12209 3860 1 109.50000 418.400000
3859 12209 3861 1 109.50000 418.400000
3859 12209 3862 1 109.50000 418.400000
3860 12209 3861 1 109.50000 418.400000
3860 12209 3862 1 109.50000 418.400000
3861 12209 3862 1 109.50000 418.400000
3863 12210 3864 1 109.50000 418.400000
3863 12210 3865 1 109.50000 418.400000
3863 12210 3866 1 109.50000 418.400000
3864 12210 3865 1 109.50000 418.400000
3864 12210 3866 1 109.50000 418.400000
3865 12210 3866 1 109.50000 418.400000
1608 12211 2333 1 109.50000 418.400000
1608 12211 3867 1 109.50000 418.400000
1608 12211 3868 1 109.50000 418.400000
2333 12211 3867 1 109.50000 418.400000
2333 12211 3868 1 109.50000 418.400000
3867 12211 3868 1 109.50000 418.400000
739 12212 1767 1 109.50000 418.400000
739 12212 3563 1 109.50000 418.400000
739 12212 3869 1 109.50000 418.400000
1767 12212 3563 1 109.50000 418.400000
1767 12212 3869 1 109.50000 418.400000
3563 12212 3869 1 109.50000 418.400000
3805 12213 3870 1 109.50000 418.400000
3805 12213 3871 1 109.50000 418.400000
3805 12213 3872 1 109.50000 418.400000
3870 12213 3871 1 109.50000 418.400000
3870 12213 3872 1 109.50000 418.400000
3871 12213 3872 1 109.50000 418.400000
3873 12214 3874 1 109.50000 418.400000
3873 12214 3875 1 109.50000 418.400000
3873 12214 3876 1 109.50000 418.400000
3874 12214 3875 1 109.50000 418.400000
3874 12214 3876 1 109.50000 418.400000
3875 12214 3876 1 109.50000 418.400000
3882 12215 3883 1 109.50000 418.400000
3882 12215 3884 1 109.50000 418.400000
3882 12215 3885 1 109.50000 418.400000
3883 12215 3884 1 109.50000 418.400000
3883 12215 3885 1 109.50000 418.400000
3884 12215 3885 1 109.50000 418.400000
200 12216 3886 1 109.50000 418.400000
200 12216 3887 1 109.50000 418.400000
200 12216 3888 1 109.50000 418.400000
3886 12216 3887 1 109.50000 418.400000
3886 12216 3888 1 109.50000 418.400000
3887 12216 3888 1 109.50000 418.400000
738 12217 3889 1 109.50000 418.400000
738 12217 3890 1 109.50000 418.400000
738 12217 3891 1 109.50000 418.400000
3889 12217 3890 1 109.50000 418.400000
3889 12217 3891 1 109.50000 418.400000
3890 12217 3891 1 109.50000 418.400000
3250 12218 3892 1 109.50000 418.400000
3250 12218 3893 1 109.50000 418.400000
3250 12218 3894 1 109.50000 418.400000
3892 12218 3893 1 109.50000 418.400000
3892 12218 3894 1 109.50000 418.400000
3893 12218 3894 1 109.50000 418.400000
3895 12219 3896 1 109.50000 418.400000
3895 12219 3897 1 109.50000 418.400000
3895 12219 3898 1 109.50000 418.400000
3896 12219 3897 1 109.50000 418.400000
3896 12219 3898 1 109.50000 418.400000
3897 12219 3898 1 109.50000 418.400000
457 12220 3899 1 109.50000 418.400000
457 12220 3900 1 109.50000 418.400000
457 12220 3901 1 109.50000 418.400000
3899 12220 3900 1 109.50000 418.400000
3899 12220 3901 1 109.50000 418.400000
3900 12220 3901 1 109.50000 418.400000
3902 12221 3903 1 109.50000 418.400000
3902 12221 3904 1 109.50000 418.400000
3902 12221 3905 1 109.50000 418.400000
3903 12221 3904 1 109.50000 418.400000
3903 12221 3905 1 109.50000 418.400000
3904 12221 3905 1 109.50000 418.400000
3906 12222 3907 1 109.50000 418.400000
3906 12222 3908 1 109.50000 418.400000
3906 12222 3909 1 109.50000 418.400000
3907 12222 3908 1 109.50000 418.400000
3907 12222 3909 1 109.50000 418.400000
3908 12222 3909 1 109.50000 418.400000
3600 12223 3910 1 109.50000 418.400000
3600 12223 3911 1 109.50000 418.400000
3600 12223 3912 1 109.50000 418.400000
3910 12223 3911 1 109.50000 418.400000
3910 12223 3912 1 109.50000 418.400000
3911 12223 3912 1 109.50000 418.400000
370 12224 3754 1 109.50000 418.400000
370 12224 3913 1 109.50000 418.400000
370 12224 3914 1 109.50000 418.400000
3754 12224 3913 1 109.50000 418.400000
3754 12224 3914 1 109.50000 418.400000
3913 12224 3914 1 109.50000 418.400000
3915 12225 3916 1 109.50000 418.400000
3915 12225 3917 1 109.50000 418.400000
3915 12225 3918 1 109.50000 418.400000
3916 12225 3917 1 109.50000 418.400000
3916 12225 3918 1 109.50000 418.400000
3917 12225 3918 1 109.50000 418.400000
3920 12226 3921 1 109.50000 418.400000
3920 12226 7085 1 109.50000 418.400000
3920 12226 8211 1 109.50000 418.400000
3921 12226 7085 1 109.50000 418.400000
3921 12226 8211 1 109.50000 418.400000
7085 12226 8211 1 109.50000 418.400000
537 12227 727 1 109.50000 418.400000
537 12227 2894 1 109.50000 418.400000
537 12227 3923 1 109.50000 418.400000
727 12227 2894 1 109.50000 418.400000
727 12227 3923 1 109.50000 418.400000
2894 12227 3923 1 109.50000 418.400000
3706 12228 3924 1 109.50000 418.400000
3706 12228 3925 1 109.50000 418.400000
3706 12228 3926 1 109.50000 418.400000
3924 12228 3925 1 109.50000 418.400000
3924 12228 3926 1 109.50000 418.400000
3925 12228 3926 1 109.50000 418.400000
563 12229 2993 1 109.50000 418.400000
563 12229 3927 1 109.50000 418.400000
563 12229 3928 1 109.50000 418.400000
2993 12229 3927 1 109.50000 418.400000
2993 12229 3928 1 109.50000 418.400000
3927 12229 3928 1 109.50000 418.400000
1929 12230 3929 1 109.50000 418.400000
1929 12230 3930 1 109.50000 418.400000
1929 12230 11165 1 109.50000 418.400000
3929 12230 3930 1 109.50000 418.400000
3929 12230 11165 1 109.50000 418.400000
3930 12230 11165 1 109.50000 418.400000
3931 12231 3932 1 109.50000 418.400000
3931 12231 3933 1 109.50000 418.400000
3931 12231 3934 1 109.50000 418.400000
3932 12231 3933 1 109.50000 418.400000
3932 12231 3934 1 109.50000 418.400000
3933 12231 3934 1 109.50000 418.400000
1741 12232 3937 1 109.50000 418.400000
1741 12232 3938 1 109.50000 418.400000
1741 12232 6861 1 109.50000 418.400000
3937 12232 3938 1 109.50000 418.400000
3937 12232 6861 1 109.50000 418.400000
3938 12232 6861 1 109.50000 418.400000
3939 12233 3940 1 109.50000 418.400000
3939 12233 3941 1 109.50000 418.400000
3939 12233 3942 1 109.50000 418.400000
3940 12233 3941 1 109.50000 418.400000
3940 12233 3942 1 109.50000 418.400000
3941 12233 3942 1 109.50000 418.400000
3279 12234 3943 1 109.50000 418.400000
3279 12234 3944 1 109.50000 418.400000
3279 12234 3945 1 109.50000 418.400000
3943 12234 3944 1 109.50000 418.400000
3943 12234 3945 1 109.50000 418.400000
3944 12234 3945 1 109.50000 418.400000
1423 12235 1957 1 109.50000 418.400000
1423 12235 3249 1 109.50000 418.400000
1423 12235 3946 1 109.50000 418.400000
1957 12235 3249 1 109.50000 418.400000
1957 12235 3946 1 109.50000 418.400000
3249 12235 3946 1 109.50000 418.400000
103 12236 3947 1 109.50000 418.400000
103 12236 3948 1 109.50000 418.400000
103 12236 3949 1 109.50000 418.400000
3947 12236 3948 1 109.50000 418.400000
3947 12236 3949 1 109.50000 418.400000
3948 12236 3949 1 109.50000 418.400000
3950 12237 3951 1 109.50000 418.400000
3950 12237 3952 1 109.50000 418.400000
3950 12237 3953 1 109.50000 418.400000
3951 12237 3952 1 109.50000 418.400000
3951 12237 3953 1 109.50000 418.400000
3952 12237 3953 1 109.50000 418.400000
3954 12238 3955 1 109.50000 418.400000
3954 12238 3957 1 109.50000 418.400000
3954 12238 7409 1 109.50000 418.400000
3955 12238 3957 1 109.50000 418.400000
3955 12238 7409 1 109.50000 418.400000
3957 12238 7409 1 109.50000 418.400000
2526 12239 3670 1 109.50000 418.400000
2526 12239 3958 1 109.50000 418.400000
2526 12239 3959 1 109.50000 418.400000
3670 12239 3958 1 109.50000 418.400000
3670 12239 3959 1 109.50000 418.400000
3958 12239 3959 1 109.50000 418.400000
882 12240 1547 1 109.50000 418.400000
882 12240 3960 1 109.50000 418.400000
882 12240 3961 1 109.50000 418.400000
1547 12240 3960 1 109.50000 418.400000
1547 12240 3961 1 109.50000 418.400000
3960 12240 3961 1 109.50000 418.400000
3962 12241 3963 1 109.50000 418.400000
3962 12241 3964 1 109.50000 418.400000
3962 12241 3965 1 109.50000 418.400000
3963 12241 3964 1 109.50000 418.400000
3963 12241 3965 1 109.50000 418.400000
3964 12241 3965 1 109.50000 418.400000
3966 12242 3967 1 109.50000 418.400000
3966 12242 3968 1 109.50000 418.400000
3966 12242 3969 1 109.50000 418.400000
3967 12242 3968 1 109.50000 418.400000
3967 12242 3969 1 109.50000 418.400000
3968 12242 3969 1 109.50000 418.400000
1568 12243 1569 1 109.50000 418.400000
1568 12243 3970 1 109.50000 418.400000
1568 12243 3971 1 109.50000 418.400000
1569 12243 3970 1 109.50000 418.400000
1569 12243 3971 1 109.50000 418.400000
3970 12243 3971 1 109.50000 418.400000
3973 12244 3974 1 109.50000 418.400000
3973 12244 3975 1 109.50000 418.400000
3973 12244 3976 1 109.50000 418.400000
3974 12244 3975 1 109.50000 418.400000
3974 12244 3976 1 109.50000 418.400000
3975 12244 3976 1 109.50000 418.400000
634 12245 3977 1 109.50000 418.400000
634 12245 3978 1 109.50000 418.400000
634 12245 9486 1 109.50000 418.400000
3977 12245 3978 1 109.50000 418.400000
3977 12245 9486 1 109.50000 418.400000
3978 12245 9486 1 109.50000 418.400000
1345 12246 3979 1 109.50000 418.400000
1345 12246 3980 1 109.50000 418.400000
1345 12246 3981 1 109.50000 418.400000
3979 12246 3980 1 109.50000 418.400000
3979 12246 3981 1 109.50000 418.400000
3980 12246 3981 1 109.50000 418.400000
3905 12247 3982 1 109.50000 418.400000
3905 12247 3983 1 109.50000 418.400000
3905 12247 3984 1 109.50000 418.400000
3982 12247 3983 1 109.50000 418.400000
3982 12247 3984 1 109.50000 418.400000
3983 12247 3984 1 109.50000 418.400000
3985 12248 3986 1 109.50000 418.400000
3985 12248 3987 1 109.50000 418.400000
3985 12248 3988 1 109.50000 418.400000
3986 12248 3987 1 109.50000 418.400000
3986 12248 3988 1 109.50000 418.400000
3987 12248 3988 1 109.50000 418.400000
3989 12249 3990 1 109.50000 418.400000
3989 12249 3991 1 109.50000 418.400000
3989 12249 3992 1 109.50000 418.400000
3990 12249 3991 1 109.50000 418.400000
3990 12249 3992 1 109.50000 418.400000
3991 12249 3992 1 109.50000 418.400000
3993 12250 3994 1 109.50000 418.400000
3993 12250 3995 1 109.50000 418.400000
3993 12250 3996 1 109.50000 418.400000
3994 12250 3995 1 109.50000 418.400000
3994 12250 3996 1 109.50000 418.400000
3995 12250 3996 1 109.50000 418.400000
2075 12251 3997 1 109.50000 418.400000
2075 12251 3998 1 109.50000 418.400000
2075 12251 3999 1 109.50000 418.400000
3997 12251 3998 1 109.50000 418.400000
3997 12251 3999 1 109.50000 418.400000
3998 12251 3999 1 109.50000 418.400000
1019 12252 4000 1 109.50000 418.400000
1019 12252 4001 1 109.50000 418.400000
1019 12252 4002 1 109.50000 418.400000
4000 12252 4001 1 109.50000 418.400000
4000 12252 4002 1 109.50000 418.400000
4001 12252 4002 1 109.50000 418.400000
577 12253 1841 1 109.50000 418.400000
577 12253 4003 1 109.50000 418.400000
577 12253 4004 1 109.50000 418.400000
1841 12253 4003 1 109.50000 418.400000
1841 12253 4004 1 109.50000 418.400000
4003 12253 4004 1 109.50000 418.400000
4005 12254 4006 1 109.50000 418.400000
4005 12254 4007 1 109.50000 418.400000
4005 12254 4008 1 109.50000 418.400000
4006 12254 4007 1 109.50000 418.400000
4006 12254 4008 1 109.50000 418.400000
4007 12254 4008 1 109.50000 418.400000
1273 12255 4009 1 109.50000 418.400000
1273 12255 4010 1 109.50000 418.400000
1273 12255 4011 1 109.50000 418.400000
4009 12255 4010 1 109.50000 418.400000
4009 12255 4011 1 109.50000 418.400000
4010 12255 4011 1 109.50000 418.400000
1773 12256 3971 1 109.50000 418.400000
1773 12256 4012 1 109.50000 418.400000
1773 12256 4013 1 109.50000 418.400000
3971 12256 4012 1 109.50000 418.400000
3971 12256 4013 1 109.50000 418.400000
4012 12256 4013 1 109.50000 418.400000
1689 12257 4017 1 109.50000 418.400000
1689 12257 4018 1 109.50000 418.400000
1689 12257 11224 1 109.50000 418.400000
4017 12257 4018 1 109.50000 418.400000
4017 12257 11224 1 109.50000 418.400000
4018 12257 11224 1 109.50000 418.400000
2531 12258 4019 1 109.50000 418.400000
2531 12258 4020 1 109.50000 418.400000
2531 12258 4021 1 109.50000 418.400000
4019 12258 4020 1 109.50000 418.400000
4019 12258 4021 1 109.50000 418.400000
4020 12258 4021 1 109.50000 418.400000
4023 12259 4024 1 109.50000 418.400000
4023 12259 4025 1 109.50000 418.400000
4023 12259 10492 1 109.50000 418.400000
4024 12259 4025 1 109.50000 418.400000
4024 12259 10492 1 109.50000 418.400000
4025 12259 10492 1 109.50000 418.400000
3308 12260 4026 1 109.50000 418.400000
3308 12260 6468 1 109.50000 418.400000
3308 12260 6470 1 109.50000 418.400000
4026 12260 6468 1 109.50000 418.400000
4026 12260 6470 1 109.50000 418.400000
6468 12260 6470 1 109.50000 418.400000
895 12261 897 1 109.50000 418.400000
895 12261 4031 1 109.50000 418.400000
895 12261 4032 1 109.50000 418.400000
897 12261 4031 1 109.50000 418.400000
897 12261 4032 1 109.50000 418.400000
4031 12261 4032 1 109.50000 418.400000
4035 12262 4037 1 109.50000 418.400000
4035 12262 4038 1 109.50000 418.400000
4035 12262 9062 1 109.50000 418.400000
4037 12262 4038 1 109.50000 418.400000
4037 12262 9062 1 109.50000 418.400000
4038 12262 9062 1 109.50000 418.400000
10 12263 507 1 109.50000 418.400000
10 12263 4039 1 109.50000 418.400000
10 12263 4040 1 109.50000 418.400000
507 12263 4039 1 109.50000 418.400000
507 12263 4040 1 109.50000 418.400000
4039 12263 4040 1 109.50000 418.400000
1708 12264 4043 1 109.50000 418.400000
1708 12264 4044 1 109.50000 418.400000
1708 12264 4045 1 109.50000 418.400000
4043 12264 4044 1 109.50000 418.400000
4043 12264 4045 1 109.50000 418.400000
4044 12264 4045 1 109.50000 418.400000
3026 12265 4046 1 109.50000 418.400000
3026 12265 4047 1 109.50000 418.400000
3026 12265 4048 1 109.50000 418.400000
4046 12265 4047 1 109.50000 418.400000
4046 12265 4048 1 109.50000 418.400000
4047 12265 4048 1 109.50000 418.400000
4049 12266 4050 1 109.50000 418.400000
4049 12266 4051 1 109.50000 418.400000
4049 12266 4052 1 109.50000 418.400000
4050 12266 4051 1 109.50000 418.400000
4050 12266 4052 1 109.50000 418.400000
4051 12266 4052 1 109.50000 418.400000
62 12267 4053 1 109.50000 418.400000
62 12267 4054 1 109.50000 418.400000
62 12267 4055 1 109.50000 418.400000
4053 12267 4054 1 109.50000 418.400000
4053 12267 4055 1 109.50000 418.400000
4054 12267 4055 1 109.50000 418.400000
2032 12268 4056 1 109.50000 418.400000
2032 12268 4057 1 109.50000 418.400000
2032 12268 4058 1 109.50000 418.400000
4056 12268 4057 1 109.50000 418.400000
4056 12268 4058 1 109.50000 418.400000
4057 12268 4058 1 109.50000 418.400000
78 12269 4059 1 109.50000 418.400000
78 12269 4060 1 109.50000 418.400000
78 12269 4061 1 109.50000 418.400000
4059 12269 4060 1 109.50000 418.400000
4059 12269 4061 1 109.50000 418.400000
4060 12269 4061 1 109.50000 418.400000
4062 12270 4063 1 109.50000 418.400000
4062 12270 4064 1 109.50000 418.400000
4062 12270 4065 1 109.50000 418.400000
4063 12270 4064 1 109.50000 418.400000
4063 12270 4065 1 109.50000 418.400000
4064 12270 4065 1 109.50000 418.400000
3193 12271 4066 1 109.50000 418.400000
3193 12271 4068 1 109.50000 418.400000
3193 12271 5893 1 109.50000 418.400000
4066 12271 4068 1 109.50000 418.400000
4066 12271 5893 1 109.50000 418.400000
4068 12271 5893 1 109.50000 418.400000
2941 12272 2943 1 109.50000 418.400000
2941 12272 3652 1 109.50000 418.400000
2941 12272 4069 1 109.50000 418.400000
2943 12272 3652 1 109.50000 418.400000
2943 12272 4069 1 109.50000 418.400000
3652 12272 4069 1 109.50000 418.400000
4070 12273 4071 1 109.50000 418.400000
4070 12273 4072 1 109.50000 418.400000
4070 12273 4073 1 109.50000 418.400000
4071 12273 4072 1 109.50000 418.400000
4071 12273 4073 1 109.50000 418.400000
4072 12273 4073 1 109.50000 418.400000
2715 12274 4074 1 109.50000 418.400000
2715 12274 4075 1 109.50000 418.400000
2715 12274 4076 1 109.50000 418.400000
4074 12274 4075 1 109.50000 418.400000
4074 12274 4076 1 109.50000 418.400000
4075 12274 4076 1 109.50000 418.400000
4077 12275 4078 1 109.50000 418.400000
4077 12275 4079 1 109.50000 418.400000
4077 12275 4080 1 109.50000 418.400000
4078 12275 4079 1 109.50000 418.400000
4078 12275 4080 1 109.50000 418.400000
4079 12275 4080 1 109.50000 418.400000
1696 12276 1697 1 109.50000 418.400000
1696 12276 4082 1 109.50000 418.400000
1696 12276 4083 1 109.50000 418.400000
1697 12276 4082 1 109.50000 418.400000
1697 12276 4083 1 109.50000 418.400000
4082 12276 4083 1 109.50000 418.400000
2233 12277 2342 1 109.50000 418.400000
2233 12277 4084 1 109.50000 418.400000
2233 12277 4085 1 109.50000 418.400000
2342 12277 4084 1 109.50000 418.400000
2342 12277 4085 1 109.50000 418.400000
4084 12277 4085 1 109.50000 418.400000
1331 12278 4086 1 109.50000 418.400000
1331 12278 4087 1 109.50000 418.400000
1331 12278 4088 1 109.50000 418.400000
4086 12278 4087 1 109.50000 418.400000
4086 12278 4088 1 109.50000 418.400000
4087 12278 4088 1 109.50000 418.400000
3360 12279 4089 1 109.50000 418.400000
3360 12279 4090 1 109.50000 418.400000
3360 12279 4091 1 109.50000 418.400000
4089 12279 4090 1 109.50000 418.400000
4089 12279 4091 1 109.50000 418.400000
4090 12279 4091 1 109.50000 418.400000
4092 12280 4093 1 109.50000 418.400000
4092 12280 4094 1 109.50000 418.400000
4092 12280 4095 1 109.50000 418.400000
4093 12280 4094 1 109.50000 418.400000
4093 12280 4095 1 109.50000 418.400000
4094 12280 4095 1 109.50000 418.400000
4096 12281 4097 1 109.50000 418.400000
4096 12281 4098 1 109.50000 418.400000
4096 12281 4099 1 109.50000 418.400000
4097 12281 4098 1 109.50000 418.400000
4097 12281 4099 1 109.50000 418.400000
4098 12281 4099 1 109.50000 418.400000
409 12282 1379 1 109.50000 418.400000
409 12282 4100 1 109.50000 418.400000
409 12282 6959 1 109.50000 418.400000
1379 12282 4100 1 109.50000 418.400000
1379 12282 6959 1 109.50000 418.400000
4100 12282 6959 1 109.50000 418.400000
4044 12283 4104 1 109.50000 418.400000
4044 12283 4105 1 109.50000 418.400000
4044 12283 4106 1 109.50000 418.400000
4104 12283 4105 1 109.50000 418.400000
4104 12283 4106 1 109.50000 418.400000
4105 12283 4106 1 109.50000 418.400000
1252 12284 1278 1 109.50000 418.400000
1252 12284 4112 1 109.50000 418.400000
1252 12284 4113 1 109.50000 418.400000
1278 12284 4112 1 109.50000 418.400000
1278 12284 4113 1 109.50000 418.400000
4112 12284 4113 1 109.50000 418.400000
4114 12285 4115 1 109.50000 418.400000
4114 12285 4116 1 109.50000 418.400000
4114 12285 4117 1 109.50000 418.400000
4115 12285 4116 1 109.50000 418.400000
4115 12285 4117 1 109.50000 418.400000
4116 12285 4117 1 109.50000 418.400000
1469 12286 1471 1 109.50000 418.400000
1469 12286 4118 1 109.50000 418.400000
1469 12286 4119 1 109.50000 418.400000
1471 12286 4118 1 109.50000 418.400000
1471 12286 4119 1 109.50000 418.400000
4118 12286 4119 1 109.50000 418.400000
4120 12287 4121 1 109.50000 418.400000
4120 12287 4122 1 109.50000 418.400000
4120 12287 4123 1 109.50000 418.400000
4121 12287 4122 1 109.50000 418.400000
4121 12287 4123 1 109.50000 418.400000
4122 12287 4123 1 109.50000 418.400000
4124 12288 4125 1 109.50000 418.400000
4124 12288 4126 1 109.50000 418.400000
4124 12288 4127 1 109.50000 418.400000
4125 12288 4126 1 109.50000 418.400000
4125 12288 4127 1 109.50000 418.400000
4126 12288 4127 1 109.50000 418.400000
1086 12289 1586 1 109.50000 418.400000
1086 12289 4128 1 109.50000 418.400000
1086 12289 4129 1 109.50000 418.400000
1586 12289 4128 1 109.50000 418.400000
1586 12289 4129 1 109.50000 418.400000
4128 12289 4129 1 109.50000 418.400000
1214 12290 2757 1 109.50000 418.400000
1214 12290 4130 1 109.50000 418.400000
1214 12290 4131 1 109.50000 418.400000
2757 12290 4130 1 109.50000 418.400000
2757 12290 4131 1 109.50000 418.400000
4130 12290 4131 1 109.50000 418.400000
1809 12291 4132 1 109.50000 418.400000
1809 12291 4133 1 109.50000 418.400000
1809 12291 4134 1 109.50000 418.400000
4132 12291 4133 1 109.50000 418.400000
4132 12291 4134 1 109.50000 418.400000
4133 12291 4134 1 109.50000 418.400000
3168 12292 4135 1 109.50000 418.400000
3168 12292 4136 1 109.50000 418.400000
3168 12292 4137 1 109.50000 418.400000
4135 12292 4136 1 109.50000 418.400000
4135 12292 4137 1 109.50000 418.400000
4136 12292 4137 1 109.50000 418.400000
196 12293 4138 1 109.50000 418.400000
196 12293 4139 1 109.50000 418.400000
196 12293 4140 1 109.50000 418.400000
4138 12293 4139 1 109.50000 418.400000
4138 12293 4140 1 109.50000 418.400000
4139 12293 4140 1 109.50000 418.400000
4141 12294 4142 1 109.50000 418.400000
4141 12294 4143 1 109.50000 418.400000
4141 12294 4144 1 109.50000 418.400000
4142 12294 4143 1 109.50000 418.400000
4142 12294 4144 1 109.50000 418.400000
4143 12294 4144 1 109.50000 418.400000
4145 12295 4146 1 109.50000 418.400000
4145 12295 4147 1 109.50000 418.400000
4145 12295 4148 1 109.50000 418.400000
4146 12295 4147 1 109.50000 418.400000
4146 12295 4148 1 109.50000 418.400000
4147 12295 4148 1 109.50000 418.400000
2453 12296 3542 1 109.50000 418.400000
2453 12296 4149 1 109.50000 418.400000
2453 12296 4150 1 109.50000 418.400000
3542 12296 4149 1 109.50000 418.400000
3542 12296 4150 1 109.50000 418.400000
4149 12296 4150 1 109.50000 418.400000
781 12297 4151 1 109.50000 418.400000
781 12297 4152 1 109.50000 418.400000
781 12297 4153 1 109.50000 418.400000
4151 12297 4152 1 109.50000 418.400000
4151 12297 4153 1 109.50000 418.400000
4152 12297 4153 1 109.50000 418.400000
4154 12298 4155 1 109.50000 418.400000
4154 12298 4156 1 109.50000 418.400000
4154 12298 4157 1 109.50000 418.400000
4155 12298 4156 1 109.50000 418.400000
4155 12298 4157 1 109.50000 418.400000
4156 12298 4157 1 109.50000 418.400000
1882 12299 3232 1 109.50000 418.400000
1882 12299 4158 1 109.50000 418.400000
1882 12299 4159 1 109.50000 418.400000
3232 12299 4158 1 109.50000 418.400000
3232 12299 4159 1 109.50000 418.400000
4158 12299 4159 1 109.50000 418.400000
2309 12300 4160 1 109.50000 418.400000
2309 12300 4161 1 109.50000 418.400000
2309 12300 4162 1 109.50000 418.400000
4160 12300 4161 1 109.50000 418.400000
4160 12300 4162 1 109.50000 418.400000
4161 12300 4162 1 109.50000 418.400000
4163 12301 4164 1 109.50000 418.400000
4163 12301 4165 1 109.50000 418.400000
4163 12301 4166 1 109.50000 418.400000
4164 12301 4165 1 109.50000 418.400000
4164 12301 4166 1 109.50000 418.400000
4165 12301 4166 1 109.50000 418.400000
547 12302 4169 1 109.50000 418.400000
547 12302 4170 1 109.50000 418.400000
547 12302 4171 1 109.50000 418.400000
4169 12302 4170 1 109.50000 418.400000
4169 12302 4171 1 109.50000 418.400000
4170 12302 4171 1 109.50000 418.400000
4173 12303 4174 1 109.50000 418.400000
4173 12303 4175 1 109.50000 418.400000
4173 12303 9352 1 109.50000 418.400000
4174 12303 4175 1 109.50000 418.400000
4174 12303 9352 1 109.50000 418.400000
4175 12303 9352 1 109.50000 418.400000
2241 12304 4176 1 109.50000 418.400000
2241 12304 4177 1 109.50000 418.400000
2241 12304 4178 1 109.50000 418.400000
4176 12304 4177 1 109.50000 418.400000
4176 12304 4178 1 109.50000 418.400000
4177 12304 4178 1 109.50000 418.400000
4179 12305 4180 1 109.50000 418.400000
4179 12305 4181 1 109.50000 418.400000
4179 12305 4625 1 109.50000 418.400000
4180 12305 4181 1 109.50000 418.400000
4180 12305 4625 1 109.50000 418.400000
4181 12305 4625 1 109.50000 418.400000
2590 12306 3284 1 109.50000 418.400000
2590 12306 4182 1 109.50000 418.400000
2590 12306 4183 1 109.50000 418.400000
3284 12306 4182 1 109.50000 418.400000
3284 12306 4183 1 109.50000 418.400000
4182 12306 4183 1 109.50000 418.400000
204 12307 2463 1 109.50000 418.400000
204 12307 4184 1 109.50000 418.400000
204 12307 4185 1 109.50000 418.400000
2463 12307 4184 1 109.50000 418.400000
2463 12307 4185 1 109.50000 418.400000
4184 12307 4185 1 109.50000 418.400000
4175 12308 4186 1 109.50000 418.400000
4175 12308 4187 1 109.50000 418.400000
4175 12308 4188 1 109.50000 418.400000
4186 12308 4187 1 109.50000 418.400000
4186 12308 4188 1 109.50000 418.400000
4187 12308 4188 1 109.50000 418.400000
3234 12309 3364 1 109.50000 418.400000
3234 12309 4189 1 109.50000 418.400000
3234 12309 4190 1 109.50000 418.400000
3364 12309 4189 1 109.50000 418.400000
3364 12309 4190 1 109.50000 418.400000
4189 12309 4190 1 109.50000 418.400000
3599 12310 4191 1 109.50000 418.400000
3599 12310 4192 1 109.50000 418.400000
3599 12310 4193 1 109.50000 418.400000
4191 12310 4192 1 109.50000 418.400000
4191 12310 4193 1 109.50000 418.400000
4192 12310 4193 1 109.50000 418.400000
4065 12311 4194 1 109.50000 418.400000
4065 12311 4195 1 109.50000 418.400000
4065 12311 4196 1 109.50000 418.400000
4194 12311 4195 1 109.50000 418.400000
4194 12311 4196 1 109.50000 418.400000
4195 12311 4196 1 109.50000 418.400000
4197 12312 4198 1 109.50000 418.400000
4197 12312 4199 1 109.50000 418.400000
4197 12312 4200 1 109.50000 418.400000
4198 12312 4199 1 109.50000 418.400000
4198 12312 4200 1 109.50000 418.400000
4199 12312 4200 1 109.50000 418.400000
4201 12313 4202 1 109.50000 418.400000
4201 12313 4203 1 109.50000 418.400000
4201 12313 4204 1 109.50000 418.400000
4202 12313 4203 1 109.50000 418.400000
4202 12313 4204 1 109.50000 418.400000
4203 12313 4204 1 109.50000 418.400000
1223 12314 4205 1 109.50000 418.400000
1223 12314 4206 1 109.50000 418.400000
1223 12314 4207 1 109.50000 418.400000
4205 12314 4206 1 109.50000 418.400000
4205 12314 4207 1 109.50000 418.400000
4206 12314 4207 1 109.50000 418.400000
4210 12315 4211 1 109.50000 418.400000
4210 12315 4212 1 109.50000 418.400000
4210 12315 6234 1 109.50000 418.400000
4211 12315 4212 1 109.50000 418.400000
4211 12315 6234 1 109.50000 418.400000
4212 12315 6234 1 109.50000 418.400000
4213 12316 4214 1 109.50000 418.400000
4213 12316 4215 1 109.50000 418.400000
4213 12316 4216 1 109.50000 418.400000
4214 12316 4215 1 109.50000 418.400000
4214 12316 4216 1 109.50000 418.400000
4215 12316 4216 1 109.50000 418.400000
4217 12317 4218 1 109.50000 418.400000
4217 12317 4219 1 109.50000 418.400000
4217 12317 4220 1 109.50000 418.400000
4218 12317 4219 1 109.50000 418.400000
4218 12317 4220 1 109.50000 418.400000
4219 12317 4220 1 109.50000 418.400000
4221 12318 4222 1 109.50000 418.400000
4221 12318 4223 1 109.50000 418.400000
4221 12318 4224 1 109.50000 418.400000
4222 12318 4223 1 109.50000 418.400000
4222 12318 4224 1 109.50000 418.400000
4223 12318 4224 1 109.50000 418.400000
4225 12319 4226 1 109.50000 418.400000
4225 12319 4227 1 109.50000 418.400000
4225 12319 4228 1 109.50000 418.400000
4226 12319 4227 1 109.50000 418.400000
4226 12319 4228 1 109.50000 418.400000
4227 12319 4228 1 109.50000 418.400000
4229 12320 4230 1 109.50000 418.400000
4229 12320 4231 1 109.50000 418.400000
4229 12320 7658 1 109.50000 418.400000
4230 12320 4231 1 109.50000 418.400000
4230 12320 7658 1 109.50000 418.400000
4231 12320 7658 1 109.50000 418.400000
4232 12321 4233 1 109.50000 418.400000
4232 12321 4234 1 109.50000 418.400000
4232 12321 4235 1 109.50000 418.400000
4233 12321 4234 1 109.50000 418.400000
4233 12321 4235 1 109.50000 418.400000
4234 12321 4235 1 109.50000 418.400000
4237 12322 4238 1 109.50000 418.400000
4237 12322 4239 1 109.50000 418.400000
4237 12322 4240 1 109.50000 418.400000
4238 12322 4239 1 109.50000 418.400000
4238 12322 4240 1 109.50000 418.400000
4239 12322 4240 1 109.50000 418.400000
4241 12323 4242 1 109.50000 418.400000
4241 12323 4243 1 109.50000 418.400000
4241 12323 11166 1 109.50000 418.400000
4242 12323 4243 1 109.50000 418.400000
4242 12323 11166 1 109.50000 418.400000
4243 12323 11166 1 109.50000 418.400000
4244 12324 4245 1 109.50000 418.400000
4244 12324 4246 1 109.50000 418.400000
4244 12324 4247 1 109.50000 418.400000
4245 12324 4246 1 109.50000 418.400000
4245 12324 4247 1 109.50000 418.400000
4246 12324 4247 1 109.50000 418.400000
4248 12325 4249 1 109.50000 418.400000
4248 12325 4250 1 109.50000 418.400000
4248 12325 4251 1 109.50000 418.400000
4249 12325 4250 1 109.50000 418.400000
4249 12325 4251 1 109.50000 418.400000
4250 12325 4251 1 109.50000 418.400000
704 12326 4252 1 109.50000 418.400000
704 12326 4253 1 109.50000 418.400000
704 12326 4254 1 109.50000 418.400000
4252 12326 4253 1 109.50000 418.400000
4252 12326 4254 1 109.50000 418.400000
4253 12326 4254 1 109.50000 418.400000
4255 12327 4256 1 109.50000 418.400000
4255 12327 4257 1 109.50000 418.400000
4255 12327 4258 1 109.50000 418.400000
4256 12327 4257 1 109.50000 418.400000
4256 12327 4258 1 109.50000 418.400000
4257 12327 4258 1 109.50000 418.400000
1848 12328 4259 1 109.50000 418.400000
1848 12328 4260 1 109.50000 418.400000
1848 12328 4261 1 109.50000 418.400000
4259 12328 4260 1 109.50000 418.400000
4259 12328 4261 1 109.50000 418.400000
4260 12328 4261 1 109.50000 418.400000
4262 12329 4263 1 109.50000 418.400000
4262 12329 4264 1 109.50000 418.400000
4262 12329 4265 1 109.50000 418.400000
4263 12329 4264 1 109.50000 418.400000
4263 12329 4265 1 109.50000 418.400000
4264 12329 4265 1 109.50000 418.400000
4266 12330 4267 1 109.50000 418.400000
4266 12330 4268 1 109.50000 418.400000
4266 12330 4269 1 109.50000 418.400000
4267 12330 4268 1 109.50000 418.400000
4267 12330 4269 1 109.50000 418.400000
4268 12330 4269 1 109.50000 418.400000
3108 12331 3893 1 109.50000 418.400000
3108 12331 4270 1 109.50000 418.400000
3108 12331 4271 1 109.50000 418.400000
3893 12331 4270 1 109.50000 418.400000
3893 12331 4271 1 109.50000 418.400000
4270 12331 4271 1 109.50000 418.400000
4272 12332 4273 1 109.50000 418.400000
4272 12332 4274 1 109.50000 418.400000
4272 12332 4275 1 109.50000 418.400000
4273 12332 4274 1 109.50000 418.400000
4273 12332 4275 1 109.50000 418.400000
4274 12332 4275 1 109.50000 418.400000
1460 12333 3687 1 109.50000 418.400000
1460 12333 4276 1 109.50000 418.400000
1460 12333 4277 1 109.50000 418.400000
3687 12333 4276 1 109.50000 418.400000
3687 12333 4277 1 109.50000 418.400000
4276 12333 4277 1 109.50000 418.400000
4278 12334 4279 1 109.50000 418.400000
4278 12334 4280 1 109.50000 418.400000
4278 12334 4281 1 109.50000 418.400000
4279 12334 4280 1 109.50000 418.400000
4279 12334 4281 1 109.50000 418.400000
4280 12334 4281 1 109.50000 418.400000
363 12335 1544 1 109.50000 418.400000
363 12335 4282 1 109.50000 418.400000
363 12335 4283 1 109.50000 418.400000
1544 12335 4282 1 109.50000 418.400000
1544 12335 4283 1 109.50000 418.400000
4282 12335 4283 1 109.50000 418.400000
3396 12336 4284 1 109.50000 418.400000
3396 12336 4286 1 109.50000 418.400000
3396 12336 10038 1 109.50000 418.400000
4284 12336 4286 1 109.50000 418.400000
4284 12336 10038 1 109.50000 418.400000
4286 12336 10038 1 109.50000 418.400000
4272 12337 4287 1 109.50000 418.400000
4272 12337 4288 1 109.50000 418.400000
4272 12337 4289 1 109.50000 418.400000
4287 12337 4288 1 109.50000 418.400000
4287 12337 4289 1 109.50000 418.400000
4288 12337 4289 1 109.50000 418.400000
4290 12338 4291 1 109.50000 418.400000
4290 12338 4292 1 109.50000 418.400000
4290 12338 4293 1 109.50000 418.400000
4291 12338 4292 1 109.50000 418.400000
4291 12338 4293 1 109.50000 418.400000
4292 12338 4293 1 109.50000 418.400000
658 12339 660 1 109.50000 418.400000
658 12339 4294 1 109.50000 418.400000
658 12339 4296 1 109.50000 418.400000
660 12339 4294 1 109.50000 418.400000
660 12339 4296 1 109.50000 418.400000
4294 12339 4296 1 109.50000 418.400000
3164 12340 4299 1 109.50000 418.400000
3164 12340 4300 1 109.50000 418.400000
3164 12340 4301 1 109.50000 418.400000
4299 12340 4300 1 109.50000 418.400000
4299 12340 4301 1 109.50000 418.400000
4300 12340 4301 1 109.50000 418.400000
559 12341 4302 1 109.50000 418.400000
559 12341 4304 1 109.50000 418.400000
559 12341 4560 1 109.50000 418.400000
4302 12341 4304 1 109.50000 418.400000
4302 12341 4560 1 109.50000 418.400000
4304 12341 4560 1 109.50000 418.400000
4305 12342 4306 1 109.50000 418.400000
4305 12342 4307 1 109.50000 418.400000
4305 12342 4308 1 109.50000 418.400000
4306 12342 4307 1 109.50000 418.400000
4306 12342 4308 1 109.50000 418.400000
4307 12342 4308 1 109.50000 418.400000
2836 12343 4309 1 109.50000 418.400000
2836 12343 4310 1 109.50000 418.400000
2836 12343 4311 1 109.50000 418.400000
4309 12343 4310 1 109.50000 418.400000
4309 12343 4311 1 109.50000 418.400000
4310 12343 4311 1 109.50000 418.400000
17 12344 4137 1 109.50000 418.400000
17 12344 4312 1 109.50000 418.400000
17 12344 4313 1 109.50000 418.400000
4137 12344 4312 1 109.50000 418.400000
4137 12344 4313 1 109.50000 418.400000
4312 12344 4313 1 109.50000 418.400000
740 12345 4314 1 109.50000 418.400000
740 12345 4315 1 109.50000 418.400000
740 12345 4316 1 109.50000 418.400000
4314 12345 4315 1 109.50000 418.400000
4314 12345 4316 1 109.50000 418.400000
4315 12345 4316 1 109.50000 418.400000
4317 12346 4318 1 109.50000 418.400000
4317 12346 4319 1 109.50000 418.400000
4317 12346 7759 1 109.50000 418.400000
4318 12346 4319 1 109.50000 418.400000
4318 12346 7759 1 109.50000 418.400000
4319 12346 7759 1 109.50000 418.400000
4321 12347 4322 1 109.50000 418.400000
4321 12347 4323 1 109.50000 418.400000
4321 12347 4324 1 109.50000 418.400000
4322 12347 4323 1 109.50000 418.400000
4322 12347 4324 1 109.50000 418.400000
4323 12347 4324 1 109.50000 418.400000
4327 12348 4328 1 109.50000 418.400000
4327 12348 4329 1 109.50000 418.400000
4327 12348 4330 1 109.50000 418.400000
4328 12348 4329 1 109.50000 418.400000
4328 12348 4330 1 109.50000 418.400000
4329 12348 4330 1 109.50000 418.400000
4331 12349 4332 1 109.50000 418.400000
4331 12349 4333 1 109.50000 418.400000
4331 12349 4334 1 109.50000 418.400000
4332 12349 4333 1 109.50000 418.400000
4332 12349 4334 1 109.50000 418.400000
4333 12349 4334 1 109.50000 418.400000
3556 12350 4335 1 109.50000 418.400000
3556 12350 4336 1 109.50000 418.400000
3556 12350 4337 1 109.50000 418.400000
4335 12350 4336 1 109.50000 418.400000
4335 12350 4337 1 109.50000 418.400000
4336 12350 4337 1 109.50000 418.400000
4341 12351 4342 1 109.50000 418.400000
4341 12351 4343 1 109.50000 418.400000
4341 12351 4344 1 109.50000 418.400000
4342 12351 4343 1 109.50000 418.400000
4342 12351 4344 1 109.50000 418.400000
4343 12351 4344 1 109.50000 418.400000
4345 12352 4346 1 109.50000 418.400000
4345 12352 4347 1 109.50000 418.400000
4345 12352 4348 1 109.50000 418.400000
4346 12352 4347 1 109.50000 418.400000
4346 12352 4348 1 109.50000 418.400000
4347 12352 4348 1 109.50000 418.400000
4349 12353 4350 1 109.50000 418.400000
4349 12353 4351 1 109.50000 418.400000
4349 12353 4352 1 109.50000 418.400000
4350 12353 4351 1 109.50000 418.400000
4350 12353 4352 1 109.50000 418.400000
4351 12353 4352 1 109.50000 418.400000
4353 12354 4354 1 109.50000 418.400000
4353 12354 4355 1 109.50000 418.400000
4353 12354 4356 1 109.50000 418.400000
4354 12354 4355 1 109.50000 418.400000
4354 12354 4356 1 109.50000 418.400000
4355 12354 4356 1 109.50000 418.400000
4357 12355 4358 1 109.50000 418.400000
4357 12355 4359 1 109.50000 418.400000
4357 12355 4360 1 109.50000 418.400000
4358 12355 4359 1 109.50000 418.400000
4358 12355 4360 1 109.50000 418.400000
4359 12355 4360 1 109.50000 418.400000
4361 12356 4362 1 109.50000 418.400000
4361 12356 4363 1 109.50000 418.400000
4361 12356 4364 1 109.50000 418.400000
4362 12356 4363 1 109.50000 418.400000
4362 12356 4364 1 109.50000 418.400000
4363 12356 4364 1 109.50000 418.400000
4365 12357 4366 1 109.50000 418.400000
4365 12357 4367 1 109.50000 418.400000
4365 12357 4368 1 109.50000 418.400000
4366 12357 4367 1 109.50000 418.400000
4366 12357 4368 1 109.50000 418.400000
4367 12357 4368 1 109.50000 418.400000
757 12358 4369 1 109.50000 418.400000
757 12358 4370 1 109.50000 418.400000
757 12358 4371 1 109.50000 418.400000
4369 12358 4370 1 109.50000 418.400000
4369 12358 4371 1 109.50000 418.400000
4370 12358 4371 1 109.50000 418.400000
114 12359 4143 1 109.50000 418.400000
114 12359 4372 1 109.50000 418.400000
114 12359 4373 1 109.50000 418.400000
4143 12359 4372 1 109.50000 418.400000
4143 12359 4373 1 109.50000 418.400000
4372 12359 4373 1 109.50000 418.400000
3088 12360 3574 1 109.50000 418.400000
3088 12360 4375 1 109.50000 418.400000
3088 12360 4376 1 109.50000 418.400000
3574 12360 4375 1 109.50000 418.400000
3574 12360 4376 1 109.50000 418.400000
4375 12360 4376 1 109.50000 418.400000
675 12361 4377 1 109.50000 418.400000
675 12361 4378 1 109.50000 418.400000
675 12361 4379 1 109.50000 418.400000
4377 12361 4378 1 109.50000 418.400000
4377 12361 4379 1 109.50000 418.400000
4378 12361 4379 1 109.50000 418.400000
999 12362 3664 1 109.50000 418.400000
999 12362 4380 1 109.50000 418.400000
999 12362 4381 1 109.50000 418.400000
3664 12362 4380 1 109.50000 418.400000
3664 12362 4381 1 109.50000 418.400000
4380 12362 4381 1 109.50000 418.400000
4089 12363 4382 1 109.50000 418.400000
4089 12363 4383 1 109.50000 418.400000
4089 12363 4384 1 109.50000 418.400000
4382 12363 4383 1 109.50000 418.400000
4382 12363 4384 1 109.50000 418.400000
4383 12363 4384 1 109.50000 418.400000
4385 12364 4386 1 109.50000 418.400000
4385 12364 4387 1 109.50000 418.400000
4385 12364 4388 1 109.50000 418.400000
4386 12364 4387 1 109.50000 418.400000
4386 12364 4388 1 109.50000 418.400000
4387 12364 4388 1 109.50000 418.400000
664 12365 2529 1 109.50000 418.400000
664 12365 4389 1 109.50000 418.400000
664 12365 4390 1 109.50000 418.400000
2529 12365 4389 1 109.50000 418.400000
2529 12365 4390 1 109.50000 418.400000
4389 12365 4390 1 109.50000 418.400000
1338 12366 4391 1 109.50000 418.400000
1338 12366 4393 1 109.50000 418.400000
1338 12366 9172 1 109.50000 418.400000
4391 12366 4393 1 109.50000 418.400000
4391 12366 9172 1 109.50000 418.400000
4393 12366 9172 1 109.50000 418.400000
4394 12367 4395 1 109.50000 418.400000
4394 12367 4396 1 109.50000 418.400000
4394 12367 4397 1 109.50000 418.400000
4395 12367 4396 1 109.50000 418.400000
4395 12367 4397 1 109.50000 418.400000
4396 12367 4397 1 109.50000 418.400000
2778 12368 4401 1 109.50000 418.400000
2778 12368 4402 1 109.50000 418.400000
2778 12368 4403 1 109.50000 418.400000
4401 12368 4402 1 109.50000 418.400000
4401 12368 4403 1 109.50000 418.400000
4402 12368 4403 1 109.50000 418.400000
4245 12369 4404 1 109.50000 418.400000
4245 12369 4405 1 109.50000 418.400000
4245 12369 4406 1 109.50000 418.400000
4404 12369 4405 1 109.50000 418.400000
4404 12369 4406 1 109.50000 418.400000
4405 12369 4406 1 109.50000 418.400000
571 12370 4407 1 109.50000 418.400000
571 12370 4408 1 109.50000 418.400000
571 12370 4409 1 109.50000 418.400000
4407 12370 4408 1 109.50000 418.400000
4407 12370 4409 1 109.50000 418.400000
4408 12370 4409 1 109.50000 418.400000
1203 12371 4410 1 109.50000 418.400000
1203 12371 4411 1 109.50000 418.400000
1203 12371 4412 1 109.50000 418.400000
4410 12371 4411 1 109.50000 418.400000
4410 12371 4412 1 109.50000 418.400000
4411 12371 4412 1 109.50000 418.400000
4413 12372 4414 1 109.50000 418.400000
4413 12372 4415 1 109.50000 418.400000
4413 12372 4416 1 109.50000 418.400000
4414 12372 4415 1 109.50000 418.400000
4414 12372 4416 1 109.50000 418.400000
4415 12372 4416 1 109.50000 418.400000
3407 12373 3408 1 109.50000 418.400000
3407 12373 4417 1 109.50000 418.400000
3407 12373 4418 1 109.50000 418.400000
3408 12373 4417 1 109.50000 418.400000
3408 12373 4418 1 109.50000 418.400000
4417 12373 4418 1 109.50000 418.400000
3798 12374 4420 1 109.50000 418.400000
3798 12374 4421 1 109.50000 418.400000
3798 12374 4422 1 109.50000 418.400000
4420 12374 4421 1 109.50000 418.400000
4420 12374 4422 1 109.50000 418.400000
4421 12374 4422 1 109.50000 418.400000
2375 12375 4309 1 109.50000 418.400000
2375 12375 4423 1 109.50000 418.400000
2375 12375 4424 1 109.50000 418.400000
4309 12375 4423 1 109.50000 418.400000
4309 12375 4424 1 109.50000 418.400000
4423 12375 4424 1 109.50000 418.400000
1861 12376 4425 1 109.50000 418.400000
1861 12376 4426 1 109.50000 418.400000
1861 12376 4427 1 109.50000 418.400000
4425 12376 4426 1 109.50000 418.400000
4425 12376 4427 1 109.50000 418.400000
4426 12376 4427 1 109.50000 418.400000
4428 12377 4429 1 109.50000 418.400000
4428 12377 4430 1 109.50000 418.400000
4428 12377 4431 1 109.50000 418.400000
4429 12377 4430 1 109.50000 418.400000
4429 12377 4431 1 109.50000 418.400000
4430 12377 4431 1 109.50000 418.400000
4436 12378 4437 1 109.50000 418.400000
4436 12378 4438 1 109.50000 418.400000
4436 12378 4439 1 109.50000 418.400000
4437 12378 4438 1 109.50000 418.400000
4437 12378 4439 1 109.50000 418.400000
4438 12378 4439 1 109.50000 418.400000
1833 12379 3721 1 109.50000 418.400000
1833 12379 4440 1 109.50000 418.400000
1833 12379 4441 1 109.50000 418.400000
3721 12379 4440 1 109.50000 418.400000
3721 12379 4441 1 109.50000 418.400000
4440 12379 4441 1 109.50000 418.400000
4442 12380 4443 1 109.50000 418.400000
4442 12380 4444 1 109.50000 418.400000
4442 12380 4445 1 109.50000 418.400000
4443 12380 4444 1 109.50000 418.400000
4443 12380 4445 1 109.50000 418.400000
4444 12380 4445 1 109.50000 418.400000
4446 12381 4447 1 109.50000 418.400000
4446 12381 4448 1 109.50000 418.400000
4446 12381 4449 1 109.50000 418.400000
4447 12381 4448 1 109.50000 418.400000
4447 12381 4449 1 109.50000 418.400000
4448 12381 4449 1 109.50000 418.400000
2184 12382 4450 1 109.50000 418.400000
2184 12382 4451 1 109.50000 418.400000
2184 12382 4452 1 109.50000 418.400000
4450 12382 4451 1 109.50000 418.400000
4450 12382 4452 1 109.50000 418.400000
4451 12382 4452 1 109.50000 418.400000
2483 12383 4453 1 109.50000 418.400000
2483 12383 4454 1 109.50000 418.400000
2483 12383 4455 1 109.50000 418.400000
4453 12383 4454 1 109.50000 418.400000
4453 12383 4455 1 109.50000 418.400000
4454 12383 4455 1 109.50000 418.400000
1015 12384 4456 1 109.50000 418.400000
1015 12384 4457 1 109.50000 418.400000
1015 12384 4458 1 109.50000 418.400000
4456 12384 4457 1 109.50000 418.400000
4456 12384 4458 1 109.50000 418.400000
4457 12384 4458 1 109.50000 418.400000
1055 12385 4285 1 109.50000 418.400000
1055 12385 4459 1 109.50000 418.400000
1055 12385 4460 1 109.50000 418.400000
4285 12385 4459 1 109.50000 418.400000
4285 12385 4460 1 109.50000 418.400000
4459 12385 4460 1 109.50000 418.400000
2487 12386 4461 1 109.50000 418.400000
2487 12386 4462 1 109.50000 418.400000
2487 12386 4463 1 109.50000 418.400000
4461 12386 4462 1 109.50000 418.400000
4461 12386 4463 1 109.50000 418.400000
4462 12386 4463 1 109.50000 418.400000
3350 12387 4464 1 109.50000 418.400000
3350 12387 4465 1 109.50000 418.400000
3350 12387 10518 1 109.50000 418.400000
4464 12387 4465 1 109.50000 418.400000
4464 12387 10518 1 109.50000 418.400000
4465 12387 10518 1 109.50000 418.400000
3271 12388 4466 1 109.50000 418.400000
3271 12388 4467 1 109.50000 418.400000
3271 12388 4468 1 109.50000 418.400000
4466 12388 4467 1 109.50000 418.400000
4466 12388 4468 1 109.50000 418.400000
4467 12388 4468 1 109.50000 418.400000
4469 12389 4470 1 109.50000 418.400000
4469 12389 4471 1 109.50000 418.400000
4469 12389 4472 1 109.50000 418.400000
4470 12389 4471 1 109.50000 418.400000
4470 12389 4472 1 109.50000 418.400000
4471 12389 4472 1 109.50000 418.400000
310 12390 4473 1 109.50000 418.400000
310 12390 4474 1 109.50000 418.400000
310 12390 4475 1 109.50000 418.400000
4473 12390 4474 1 109.50000 418.400000
4473 12390 4475 1 109.50000 418.400000
4474 12390 4475 1 109.50000 418.400000
4482 12391 4483 1 109.50000 418.400000
4482 12391 4484 1 109.50000 418.400000
4482 12391 4485 1 109.50000 418.400000
4483 12391 4484 1 109.50000 418.400000
4483 12391 4485 1 109.50000 418.400000
4484 12391 4485 1 109.50000 418.400000
4486 12392 4487 1 109.50000 418.400000
4486 12392 4488 1 109.50000 418.400000
4486 12392 4489 1 109.50000 418.400000
4487 12392 4488 1 109.50000 418.400000
4487 12392 4489 1 109.50000 418.400000
4488 12392 4489 1 109.50000 418.400000
4490 12393 4491 1 109.50000 418.400000
4490 12393 4492 1 109.50000 418.400000
4490 12393 4493 1 109.50000 418.400000
4491 12393 4492 1 109.50000 418.400000
4491 12393 4493 1 109.50000 418.400000
4492 12393 4493 1 109.50000 418.400000
4494 12394 4496 1 109.50000 418.400000
4494 12394 4497 1 109.50000 418.400000
4494 12394 9510 1 109.50000 418.400000
4496 12394 4497 1 109.50000 418.400000
4496 12394 9510 1 109.50000 418.400000
4497 12394 9510 1 109.50000 418.400000
893 12395 4498 1 109.50000 418.400000
893 12395 4499 1 109.50000 418.400000
893 12395 4500 1 109.50000 418.400000
4498 12395 4499 1 109.50000 418.400000
4498 12395 4500 1 109.50000 418.400000
4499 12395 4500 1 109.50000 418.400000
2160 12396 4501 1 109.50000 418.400000
2160 12396 4502 1 109.50000 418.400000
2160 12396 4503 1 109.50000 418.400000
4501 12396 4502 1 109.50000 418.400000
4501 12396 4503 1 109.50000 418.400000
4502 12396 4503 1 109.50000 418.400000
3266 12397 4504 1 109.50000 418.400000
3266 12397 4505 1 109.50000 418.400000
3266 12397 4506 1 109.50000 418.400000
4504 12397 4505 1 109.50000 418.400000
4504 12397 4506 1 109.50000 418.400000
4505 12397 4506 1 109.50000 418.400000
2879 12398 3961 1 109.50000 418.400000
2879 12398 4507 1 109.50000 418.400000
2879 12398 4508 1 109.50000 418.400000
3961 12398 4507 1 109.50000 418.400000
3961 12398 4508 1 109.50000 418.400000
4507 12398 4508 1 109.50000 418.400000
4518 12399 4519 1 109.50000 418.400000
4518 12399 4520 1 109.50000 418.400000
4518 12399 4521 1 109.50000 418.400000
4519 12399 4520 1 109.50000 418.400000
4519 12399 4521 1 109.50000 418.400000
4520 12399 4521 1 109.50000 418.400000
529 12400 2344 1 109.50000 418.400000
529 12400 4522 1 109.50000 418.400000
529 12400 4523 1 109.50000 418.400000
2344 12400 4522 1 109.50000 418.400000
2344 12400 4523 1 109.50000 418.400000
4522 12400 4523 1 109.50000 418.400000
2214 12401 3701 1 109.50000 418.400000
2214 12401 4524 1 109.50000 418.400000
2214 12401 4525 1 109.50000 418.400000
3701 12401 4524 1 109.50000 418.400000
3701 12401 4525 1 109.50000 418.400000
4524 12401 4525 1 109.50000 418.400000
4526 12402 4527 1 109.50000 418.400000
4526 12402 4528 1 109.50000 418.400000
4526 12402 4529 1 109.50000 418.400000
4527 12402 4528 1 109.50000 418.400000
4527 12402 4529 1 109.50000 418.400000
4528 12402 4529 1 109.50000 418.400000
4371 12403 4531 1 109.50000 418.400000
4371 12403 4532 1 109.50000 418.400000
4371 12403 4533 1 109.50000 418.400000
4531 12403 4532 1 109.50000 418.400000
4531 12403 4533 1 109.50000 418.400000
4532 12403 4533 1 109.50000 418.400000
12 12404 4536 1 109.50000 418.400000
12 12404 4537 1 109.50000 418.400000
12 12404 4538 1 109.50000 418.400000
4536 12404 4537 1 109.50000 418.400000
4536 12404 4538 1 109.50000 418.400000
4537 12404 4538 1 109.50000 418.400000
3231 12405 4540 1 109.50000 418.400000
3231 12405 4541 1 109.50000 418.400000
3231 12405 4542 1 109.50000 418.400000
4540 12405 4541 1 109.50000 418.400000
4540 12405 4542 1 109.50000 418.400000
4541 12405 4542 1 109.50000 418.400000
3759 12406 4543 1 109.50000 418.400000
3759 12406 4544 1 109.50000 418.400000
3759 12406 4545 1 109.50000 418.400000
4543 12406 4544 1 109.50000 418.400000
4543 12406 4545 1 109.50000 418.400000
4544 12406 4545 1 109.50000 418.400000
4546 12407 4547 1 109.50000 418.400000
4546 12407 4548 1 109.50000 418.400000
4546 12407 4549 1 109.50000 418.400000
4547 12407 4548 1 109.50000 418.400000
4547 12407 4549 1 109.50000 418.400000
4548 12407 4549 1 109.50000 418.400000
2289 12408 4550 1 109.50000 418.400000
2289 12408 4551 1 109.50000 418.400000
2289 12408 4552 1 109.50000 418.400000
4550 12408 4551 1 109.50000 418.400000
4550 12408 4552 1 109.50000 418.400000
4551 12408 4552 1 109.50000 418.400000
4554 12409 4555 1 109.50000 418.400000
4554 12409 4556 1 109.50000 418.400000
4554 12409 9056 1 109.50000 418.400000
4555 12409 4556 1 109.50000 418.400000
4555 12409 9056 1 109.50000 418.400000
4556 12409 9056 1 109.50000 418.400000
2614 12410 4557 1 109.50000 418.400000
2614 12410 4558 1 109.50000 418.400000
2614 12410 4559 1 109.50000 418.400000
4557 12410 4558 1 109.50000 418.400000
4557 12410 4559 1 109.50000 418.400000
4558 12410 4559 1 109.50000 418.400000
4302 12411 4303 1 109.50000 418.400000
4302 12411 4561 1 109.50000 418.400000
4302 12411 4562 1 109.50000 418.400000
4303 12411 4561 1 109.50000 418.400000
4303 12411 4562 1 109.50000 418.400000
4561 12411 4562 1 109.50000 418.400000
394 12412 4462 1 109.50000 418.400000
394 12412 4563 1 109.50000 418.400000
394 12412 4564 1 109.50000 418.400000
4462 12412 4563 1 109.50000 418.400000
4462 12412 4564 1 109.50000 418.400000
4563 12412 4564 1 109.50000 418.400000
415 12413 3031 1 109.50000 418.400000
415 12413 4565 1 109.50000 418.400000
415 12413 4566 1 109.50000 418.400000
3031 12413 4565 1 109.50000 418.400000
3031 12413 4566 1 109.50000 418.400000
4565 12413 4566 1 109.50000 418.400000
754 12414 2128 1 109.50000 418.400000
754 12414 2917 1 109.50000 418.400000
754 12414 4567 1 109.50000 418.400000
2128 12414 2917 1 109.50000 418.400000
2128 12414 4567 1 109.50000 418.400000
2917 12414 4567 1 109.50000 418.400000
4568 12415 4569 1 109.50000 418.400000
4568 12415 4570 1 109.50000 418.400000
4568 12415 4571 1 109.50000 418.400000
4569 12415 4570 1 109.50000 418.400000
4569 12415 4571 1 109.50000 418.400000
4570 12415 4571 1 109.50000 418.400000
3517 12416 4572 1 109.50000 418.400000
3517 12416 4573 1 109.50000 418.400000
3517 12416 4574 1 109.50000 418.400000
4572 12416 4573 1 109.50000 418.400000
4572 12416 4574 1 109.50000 418.400000
4573 12416 4574 1 109.50000 418.400000
4575 12417 4576 1 109.50000 418.400000
4575 12417 4577 1 109.50000 418.400000
4575 12417 4578 1 109.50000 418.400000
4576 12417 4577 1 109.50000 418.400000
4576 12417 4578 1 109.50000 418.400000
4577 12417 4578 1 109.50000 418.400000
4579 12418 4580 1 109.50000 418.400000
4579 12418 4581 1 109.50000 418.400000
4579 12418 4582 1 109.50000 418.400000
4580 12418 4581 1 109.50000 418.400000
4580 12418 4582 1 109.50000 418.400000
4581 12418 4582 1 109.50000 418.400000
2219 12419 3346 1 109.50000 418.400000
2219 12419 4583 1 109.50000 418.400000
2219 12419 8090 1 109.50000 418.400000
3346 12419 4583 1 109.50000 418.400000
3346 12419 8090 1 109.50000 418.400000
4583 12419 8090 1 109.50000 418.400000
2454 12420 2843 1 109.50000 418.400000
2454 12420 4364 1 109.50000 418.400000
2454 12420 4585 1 109.50000 418.400000
2843 12420 4364 1 109.50000 418.400000
2843 12420 4585 1 109.50000 418.400000
4364 12420 4585 1 109.50000 418.400000
4591 12421 9469 1 109.50000 418.400000
4591 12421 10531 1 109.50000 418.400000
4591 12421 10532 1 109.50000 418.400000
9469 12421 10531 1 109.50000 418.400000
9469 12421 10532 1 109.50000 418.400000
10531 12421 10532 1 109.50000 418.400000
2864 12422 4594 1 109.50000 418.400000
2864 12422 4595 1 109.50000 418.400000
2864 12422 10285 1 109.50000 418.400000
4594 12422 4595 1 109.50000 418.400000
4594 12422 10285 1 109.50000 418.400000
4595 12422 10285 1 109.50000 418.400000
120 12423 4596 1 109.50000 418.400000
120 12423 4597 1 109.50000 418.400000
120 12423 4598 1 109.50000 418.400000
4596 12423 4597 1 109.50000 418.400000
4596 12423 4598 1 109.50000 418.400000
4597 12423 4598 1 109.50000 418.400000
4599 12424 4600 1 109.50000 418.400000
4599 12424 4601 1 109.50000 418.400000
4599 12424 4602 1 109.50000 418.400000
4600 12424 4601 1 109.50000 418.400000
4600 12424 4602 1 109.50000 418.400000
4601 12424 4602 1 109.50000 418.400000
399 12425 1946 1 109.50000 418.400000
399 12425 4605 1 109.50000 418.400000
399 12425 4606 1 109.50000 418.400000
1946 12425 4605 1 109.50000 418.400000
1946 12425 4606 1 109.50000 418.400000
4605 12425 4606 1 109.50000 418.400000
4609 12426 4610 1 109.50000 418.400000
4609 12426 4611 1 109.50000 418.400000
4609 12426 4612 1 109.50000 418.400000
4610 12426 4611 1 109.50000 418.400000
4610 12426 4612 1 109.50000 418.400000
4611 12426 4612 1 109.50000 418.400000
4613 12427 4614 1 109.50000 418.400000
4613 12427 4615 1 109.50000 418.400000
4613 12427 4616 1 109.50000 418.400000
4614 12427 4615 1 109.50000 418.400000
4614 12427 4616 1 109.50000 418.400000
4615 12427 4616 1 109.50000 418.400000
140 12428 4617 1 109.50000 418.400000
140 12428 4618 1 109.50000 418.400000
140 12428 4619 1 109.50000 418.400000
4617 12428 4618 1 109.50000 418.400000
4617 12428 4619 1 109.50000 418.400000
4618 12428 4619 1 109.50000 418.400000
2542 12429 4620 1 109.50000 418.400000
2542 12429 4621 1 109.50000 418.400000
2542 12429 4622 1 109.50000 418.400000
4620 12429 4621 1 109.50000 418.400000
4620 12429 4622 1 109.50000 418.400000
4621 12429 4622 1 109.50000 418.400000
753 12430 4179 1 109.50000 418.400000
753 12430 4626 1 109.50000 418.400000
753 12430 4627 1 109.50000 418.400000
4179 12430 4626 1 109.50000 418.400000
4179 12430 4627 1 109.50000 418.400000
4626 12430 4627 1 109.50000 418.400000
1393 12431 4420 1 109.50000 418.400000
1393 12431 4628 1 109.50000 418.400000
1393 12431 4629 1 109.50000 418.400000
4420 12431 4628 1 109.50000 418.400000
4420 12431 4629 1 109.50000 418.400000
4628 12431 4629 1 109.50000 418.400000
4630 12432 4631 1 109.50000 418.400000
4630 12432 4632 1 109.50000 418.400000
4630 12432 4633 1 109.50000 418.400000
4631 12432 4632 1 109.50000 418.400000
4631 12432 4633 1 109.50000 418.400000
4632 12432 4633 1 109.50000 418.400000
1847 12433 3783 1 109.50000 418.400000
1847 12433 4634 1 109.50000 418.400000
1847 12433 4635 1 109.50000 418.400000
3783 12433 4634 1 109.50000 418.400000
3783 12433 4635 1 109.50000 418.400000
4634 12433 4635 1 109.50000 418.400000
186 12434 543 1 109.50000 418.400000
186 12434 544 1 109.50000 418.400000
186 12434 545 1 109.50000 418.400000
543 12434 544 1 109.50000 418.400000
543 12434 545 1 109.50000 418.400000
544 12434 545 1 109.50000 418.400000
4641 12435 4642 1 109.50000 418.400000
4641 12435 4643 1 109.50000 418.400000
4641 12435 4644 1 109.50000 418.400000
4642 12435 4643 1 109.50000 418.400000
4642 12435 4644 1 109.50000 418.400000
4643 12435 4644 1 109.50000 418.400000
1801 12436 4645 1 109.50000 418.400000
1801 12436 4646 1 109.50000 418.400000
1801 12436 4647 1 109.50000 418.400000
4645 12436 4646 1 109.50000 418.400000
4645 12436 4647 1 109.50000 418.400000
4646 12436 4647 1 109.50000 418.400000
3623 12437 4648 1 109.50000 418.400000
3623 12437 4649 1 109.50000 418.400000
3623 12437 4650 1 109.50000 418.400000
4648 12437 4649 1 109.50000 418.400000
4648 12437 4650 1 109.50000 418.400000
4649 12437 4650 1 109.50000 418.400000
4046 12438 4651 1 109.50000 418.400000
4046 12438 4652 1 109.50000 418.400000
4046 12438 4653 1 109.50000 418.400000
4651 12438 4652 1 109.50000 418.400000
4651 12438 4653 1 109.50000 418.400000
4652 12438 4653 1 109.50000 418.400000
4654 12439 4655 1 109.50000 418.400000
4654 12439 4656 1 109.50000 418.400000
4654 12439 4657 1 109.50000 418.400000
4655 12439 4656 1 109.50000 418.400000
4655 12439 4657 1 109.50000 418.400000
4656 12439 4657 1 109.50000 418.400000
2561 12440 2745 1 109.50000 418.400000
2561 12440 4658 1 109.50000 418.400000
2561 12440 4659 1 109.50000 418.400000
2745 12440 4658 1 109.50000 418.400000
2745 12440 4659 1 109.50000 418.400000
4658 12440 4659 1 109.50000 418.400000
4660 12441 4661 1 109.50000 418.400000
4660 12441 4662 1 109.50000 418.400000
4660 12441 4663 1 109.50000 418.400000
4661 12441 4662 1 109.50000 418.400000
4661 12441 4663 1 109.50000 418.400000
4662 12441 4663 1 109.50000 418.400000
3758 12442 4664 1 109.50000 418.400000
3758 12442 4665 1 109.50000 418.400000
3758 12442 4666 1 109.50000 418.400000
4664 12442 4665 1 109.50000 418.400000
4664 12442 4666 1 109.50000 418.400000
4665 12442 4666 1 109.50000 418.400000
4667 12443 4668 1 109.50000 418.400000
4667 12443 4669 1 109.50000 418.400000
4667 12443 4670 1 109.50000 418.400000
4668 12443 4669 1 109.50000 418.400000
4668 12443 4670 1 109.50000 418.400000
4669 12443 4670 1 109.50000 418.400000
4422 12444 4671 1 109.50000 418.400000
4422 12444 4672 1 109.50000 418.400000
4422 12444 4673 1 109.50000 418.400000
4671 12444 4672 1 109.50000 418.400000
4671 12444 4673 1 109.50000 418.400000
4672 12444 4673 1 109.50000 418.400000
4674 12445 4675 1 109.50000 418.400000
4674 12445 4677 1 109.50000 418.400000
4674 12445 6369 1 109.50000 418.400000
4675 12445 4677 1 109.50000 418.400000
4675 12445 6369 1 109.50000 418.400000
4677 12445 6369 1 109.50000 418.400000
4678 12446 4679 1 109.50000 418.400000
4678 12446 4680 1 109.50000 418.400000
4678 12446 4681 1 109.50000 418.400000
4679 12446 4680 1 109.50000 418.400000
4679 12446 4681 1 109.50000 418.400000
4680 12446 4681 1 109.50000 418.400000
96 12447 2613 1 109.50000 418.400000
96 12447 4682 1 109.50000 418.400000
96 12447 4683 1 109.50000 418.400000
2613 12447 4682 1 109.50000 418.400000
2613 12447 4683 1 109.50000 418.400000
4682 12447 4683 1 109.50000 418.400000
4684 12448 4685 1 109.50000 418.400000
4684 12448 4686 1 109.50000 418.400000
4684 12448 4687 1 109.50000 418.400000
4685 12448 4686 1 109.50000 418.400000
4685 12448 4687 1 109.50000 418.400000
4686 12448 4687 1 109.50000 418.400000
2685 12449 4688 1 109.50000 418.400000
2685 12449 4689 1 109.50000 418.400000
2685 12449 4690 1 109.50000 418.400000
4688 12449 4689 1 109.50000 418.400000
4688 12449 4690 1 109.50000 418.400000
4689 12449 4690 1 109.50000 418.400000
3592 12450 4649 1 109.50000 418.400000
3592 12450 4694 1 109.50000 418.400000
3592 12450 4695 1 109.50000 418.400000
4649 12450 4694 1 109.50000 418.400000
4649 12450 4695 1 109.50000 418.400000
4694 12450 4695 1 109.50000 418.400000
623 12451 2273 1 109.50000 418.400000
623 12451 4696 1 109.50000 418.400000
623 12451 4697 1 109.50000 418.400000
2273 12451 4696 1 109.50000 418.400000
2273 12451 4697 1 109.50000 418.400000
4696 12451 4697 1 109.50000 418.400000
1474 12452 2833 1 109.50000 418.400000
1474 12452 4698 1 109.50000 418.400000
1474 12452 4699 1 109.50000 418.400000
2833 12452 4698 1 109.50000 418.400000
2833 12452 4699 1 109.50000 418.400000
4698 12452 4699 1 109.50000 418.400000
4262 12453 4702 1 109.50000 418.400000
4262 12453 4703 1 109.50000 418.400000
4262 12453 4704 1 109.50000 418.400000
4702 12453 4703 1 109.50000 418.400000
4702 12453 4704 1 109.50000 418.400000
4703 12453 4704 1 109.50000 418.400000
1082 12454 4705 1 109.50000 418.400000
1082 12454 4706 1 109.50000 418.400000
1082 12454 4707 1 109.50000 418.400000
4705 12454 4706 1 109.50000 418.400000
4705 12454 4707 1 109.50000 418.400000
4706 12454 4707 1 109.50000 418.400000
2497 12455 4708 1 109.50000 418.400000
2497 12455 4709 1 109.50000 418.400000
2497 12455 4710 1 109.50000 418.400000
4708 12455 4709 1 109.50000 418.400000
4708 12455 4710 1 109.50000 418.400000
4709 12455 4710 1 109.50000 418.400000
4711 12456 4712 1 109.50000 418.400000
4711 12456 4713 1 109.50000 418.400000
4711 12456 4714 1 109.50000 418.400000
4712 12456 4713 1 109.50000 418.400000
4712 12456 4714 1 109.50000 418.400000
4713 12456 4714 1 109.50000 418.400000
2594 12457 4083 1 109.50000 418.400000
2594 12457 4715 1 109.50000 418.400000
2594 12457 4716 1 109.50000 418.400000
4083 12457 4715 1 109.50000 418.400000
4083 12457 4716 1 109.50000 418.400000
4715 12457 4716 1 109.50000 418.400000
4717 12458 4718 1 109.50000 418.400000
4717 12458 4719 1 109.50000 418.400000
4717 12458 4720 1 109.50000 418.400000
4718 12458 4719 1 109.50000 418.400000
4718 12458 4720 1 109.50000 418.400000
4719 12458 4720 1 109.50000 418.400000
4721 12459 4722 1 109.50000 418.400000
4721 12459 4723 1 109.50000 418.400000
4721 12459 4724 1 109.50000 418.400000
4722 12459 4723 1 109.50000 418.400000
4722 12459 4724 1 109.50000 418.400000
4723 12459 4724 1 109.50000 418.400000
4725 12460 4726 1 109.50000 418.400000
4725 12460 4727 1 109.50000 418.400000
4725 12460 4728 1 109.50000 418.400000
4726 12460 4727 1 109.50000 418.400000
4726 12460 4728 1 109.50000 418.400000
4727 12460 4728 1 109.50000 418.400000
4557 12461 4729 1 109.50000 418.400000
4557 12461 4730 1 109.50000 418.400000
4557 12461 4731 1 109.50000 418.400000
4729 12461 4730 1 109.50000 418.400000
4729 12461 4731 1 109.50000 418.400000
4730 12461 4731 1 109.50000 418.400000
4732 12462 4733 1 109.50000 418.400000
4732 12462 4734 1 109.50000 418.400000
4732 12462 4735 1 109.50000 418.400000
4733 12462 4734 1 109.50000 418.400000
4733 12462 4735 1 109.50000 418.400000
4734 12462 4735 1 109.50000 418.400000
4738 12463 4739 1 109.50000 418.400000
4738 12463 4740 1 109.50000 418.400000
4738 12463 4741 1 109.50000 418.400000
4739 12463 4740 1 109.50000 418.400000
4739 12463 4741 1 109.50000 418.400000
4740 12463 4741 1 109.50000 418.400000
3547 12464 4742 1 109.50000 418.400000
3547 12464 4743 1 109.50000 418.400000
3547 12464 4744 1 109.50000 418.400000
4742 12464 4743 1 109.50000 418.400000
4742 12464 4744 1 109.50000 418.400000
4743 12464 4744 1 109.50000 418.400000
2565 12465 4144 1 109.50000 418.400000
2565 12465 4745 1 109.50000 418.400000
2565 12465 4746 1 109.50000 418.400000
4144 12465 4745 1 109.50000 418.400000
4144 12465 4746 1 109.50000 418.400000
4745 12465 4746 1 109.50000 418.400000
4112 12466 4747 1 109.50000 418.400000
4112 12466 4748 1 109.50000 418.400000
4112 12466 4749 1 109.50000 418.400000
4747 12466 4748 1 109.50000 418.400000
4747 12466 4749 1 109.50000 418.400000
4748 12466 4749 1 109.50000 418.400000
1616 12467 1815 1 109.50000 418.400000
1616 12467 4750 1 109.50000 418.400000
1616 12467 4751 1 109.50000 418.400000
1815 12467 4750 1 109.50000 418.400000
1815 12467 4751 1 109.50000 418.400000
4750 12467 4751 1 109.50000 418.400000
4723 12468 4752 1 109.50000 418.400000
4723 12468 4753 1 109.50000 418.400000
4723 12468 4754 1 109.50000 418.400000
4752 12468 4753 1 109.50000 418.400000
4752 12468 4754 1 109.50000 418.400000
4753 12468 4754 1 109.50000 418.400000
54 12469 4756 1 109.50000 418.400000
54 12469 4757 1 109.50000 418.400000
54 12469 4758 1 109.50000 418.400000
4756 12469 4757 1 109.50000 418.400000
4756 12469 4758 1 109.50000 418.400000
4757 12469 4758 1 109.50000 418.400000
4288 12470 4759 1 109.50000 418.400000
4288 12470 4761 1 109.50000 418.400000
4288 12470 9073 1 109.50000 418.400000
4759 12470 4761 1 109.50000 418.400000
4759 12470 9073 1 109.50000 418.400000
4761 12470 9073 1 109.50000 418.400000
4713 12471 4762 1 109.50000 418.400000
4713 12471 4763 1 109.50000 418.400000
4713 12471 4764 1 109.50000 418.400000
4762 12471 4763 1 109.50000 418.400000
4762 12471 4764 1 109.50000 418.400000
4763 12471 4764 1 109.50000 418.400000
1679 12472 2482 1 109.50000 418.400000
1679 12472 4133 1 109.50000 418.400000
1679 12472 4765 1 109.50000 418.400000
2482 12472 4133 1 109.50000 418.400000
2482 12472 4765 1 109.50000 418.400000
4133 12472 4765 1 109.50000 418.400000
4606 12473 4766 1 109.50000 418.400000
4606 12473 4767 1 109.50000 418.400000
4606 12473 4768 1 109.50000 418.400000
4766 12473 4767 1 109.50000 418.400000
4766 12473 4768 1 109.50000 418.400000
4767 12473 4768 1 109.50000 418.400000
1665 12474 2646 1 109.50000 418.400000
1665 12474 4769 1 109.50000 418.400000
1665 12474 4770 1 109.50000 418.400000
2646 12474 4769 1 109.50000 418.400000
2646 12474 4770 1 109.50000 418.400000
4769 12474 4770 1 109.50000 418.400000
4773 12475 4774 1 109.50000 418.400000
4773 12475 4775 1 109.50000 418.400000
4773 12475 4776 1 109.50000 418.400000
4774 12475 4775 1 109.50000 418.400000
4774 12475 4776 1 109.50000 418.400000
4775 12475 4776 1 109.50000 418.400000
4777 12476 4778 1 109.50000 418.400000
4777 12476 4779 1 109.50000 418.400000
4777 12476 4780 1 109.50000 418.400000
4778 12476 4779 1 109.50000 418.400000
4778 12476 4780 1 109.50000 418.400000
4779 12476 4780 1 109.50000 418.400000
3001 12477 4072 1 109.50000 418.400000
3001 12477 4781 1 109.50000 418.400000
3001 12477 4782 1 109.50000 418.400000
4072 12477 4781 1 109.50000 418.400000
4072 12477 4782 1 109.50000 418.400000
4781 12477 4782 1 109.50000 418.400000
797 12478 4322 1 109.50000 418.400000
797 12478 4784 1 109.50000 418.400000
797 12478 4785 1 109.50000 418.400000
4322 12478 4784 1 109.50000 418.400000
4322 12478 4785 1 109.50000 418.400000
4784 12478 4785 1 109.50000 418.400000
379 12479 4786 1 109.50000 418.400000
379 12479 4787 1 109.50000 418.400000
379 12479 4788 1 109.50000 418.400000
4786 12479 4787 1 109.50000 418.400000
4786 12479 4788 1 109.50000 418.400000
4787 12479 4788 1 109.50000 418.400000
2971 12480 2972 1 109.50000 418.400000
2971 12480 4793 1 109.50000 418.400000
2971 12480 4794 1 109.50000 418.400000
2972 12480 4793 1 109.50000 418.400000
2972 12480 4794 1 109.50000 418.400000
4793 12480 4794 1 109.50000 418.400000
4796 12481 4797 1 109.50000 418.400000
4796 12481 4798 1 109.50000 418.400000
4796 12481 4799 1 109.50000 418.400000
4797 12481 4798 1 109.50000 418.400000
4797 12481 4799 1 109.50000 418.400000
4798 12481 4799 1 109.50000 418.400000
4801 12482 4803 1 109.50000 418.400000
4801 12482 6161 1 109.50000 418.400000
4801 12482 7451 1 109.50000 418.400000
4803 12482 6161 1 109.50000 418.400000
4803 12482 7451 1 109.50000 418.400000
6161 12482 7451 1 109.50000 418.400000
2791 12483 2793 1 109.50000 418.400000
2791 12483 4804 1 109.50000 418.400000
2791 12483 4805 1 109.50000 418.400000
2793 12483 4804 1 109.50000 418.400000
2793 12483 4805 1 109.50000 418.400000
4804 12483 4805 1 109.50000 418.400000
3725 12484 4818 1 109.50000 418.400000
3725 12484 4819 1 109.50000 418.400000
3725 12484 4820 1 109.50000 418.400000
4818 12484 4819 1 109.50000 418.400000
4818 12484 4820 1 109.50000 418.400000
4819 12484 4820 1 109.50000 418.400000
4821 12485 4822 1 109.50000 418.400000
4821 12485 4823 1 109.50000 418.400000
4821 12485 4824 1 109.50000 418.400000
4822 12485 4823 1 109.50000 418.400000
4822 12485 4824 1 109.50000 418.400000
4823 12485 4824 1 109.50000 418.400000
1424 12486 4828 1 109.50000 418.400000
1424 12486 4829 1 109.50000 418.400000
1424 12486 4830 1 109.50000 418.400000
4828 12486 4829 1 109.50000 418.400000
4828 12486 4830 1 109.50000 418.400000
4829 12486 4830 1 109.50000 418.400000
4831 12487 4832 1 109.50000 418.400000
4831 12487 4833 1 109.50000 418.400000
4831 12487 4834 1 109.50000 418.400000
4832 12487 4833 1 109.50000 418.400000
4832 12487 4834 1 109.50000 418.400000
4833 12487 4834 1 109.50000 418.400000
39 12488 4835 1 109.50000 418.400000
39 12488 4836 1 109.50000 418.400000
39 12488 4837 1 109.50000 418.400000
4835 12488 4836 1 109.50000 418.400000
4835 12488 4837 1 109.50000 418.400000
4836 12488 4837 1 109.50000 418.400000
955 12489 4838 1 109.50000 418.400000
955 12489 4839 1 109.50000 418.400000
955 12489 4840 1 109.50000 418.400000
4838 12489 4839 1 109.50000 418.400000
4838 12489 4840 1 109.50000 418.400000
4839 12489 4840 1 109.50000 418.400000
4841 12490 4842 1 109.50000 418.400000
4841 12490 4843 1 109.50000 418.400000
4841 12490 4844 1 109.50000 418.400000
4842 12490 4843 1 109.50000 418.400000
4842 12490 4844 1 109.50000 418.400000
4843 12490 4844 1 109.50000 418.400000
3912 12491 4845 1 109.50000 418.400000
3912 12491 4846 1 109.50000 418.400000
3912 12491 4847 1 109.50000 418.400000
4845 12491 4846 1 109.50000 418.400000
4845 12491 4847 1 109.50000 418.400000
4846 12491 4847 1 109.50000 418.400000
340 12492 4850 1 109.50000 418.400000
340 12492 4851 1 109.50000 418.400000
340 12492 4852 1 109.50000 418.400000
4850 12492 4851 1 109.50000 418.400000
4850 12492 4852 1 109.50000 418.400000
4851 12492 4852 1 109.50000 418.400000
4392 12493 4853 1 109.50000 418.400000
4392 12493 4854 1 109.50000 418.400000
4392 12493 4855 1 109.50000 418.400000
4853 12493 4854 1 109.50000 418.400000
4853 12493 4855 1 109.50000 418.400000
4854 12493 4855 1 109.50000 418.400000
2447 12494 3909 1 109.50000 418.400000
2447 12494 4856 1 109.50000 418.400000
2447 12494 4857 1 109.50000 418.400000
3909 12494 4856 1 109.50000 418.400000
3909 12494 4857 1 109.50000 418.400000
4856 12494 4857 1 109.50000 418.400000
2865 12495 2866 1 109.50000 418.400000
2865 12495 4858 1 109.50000 418.400000
2865 12495 4859 1 109.50000 418.400000
2866 12495 4858 1 109.50000 418.400000
2866 12495 4859 1 109.50000 418.400000
4858 12495 4859 1 109.50000 418.400000
4863 12496 4864 1 109.50000 418.400000
4863 12496 4865 1 109.50000 418.400000
4863 12496 4866 1 109.50000 418.400000
4864 12496 4865 1 109.50000 418.400000
4864 12496 4866 1 109.50000 418.400000
4865 12496 4866 1 109.50000 418.400000
2320 12497 4867 1 109.50000 418.400000
2320 12497 4868 1 109.50000 418.400000
2320 12497 4869 1 109.50000 418.400000
4867 12497 4868 1 109.50000 418.400000
4867 12497 4869 1 109.50000 418.400000
4868 12497 4869 1 109.50000 418.400000
841 12498 2752 1 109.50000 418.400000
841 12498 3015 1 109.50000 418.400000
841 12498 4872 1 109.50000 418.400000
2752 12498 3015 1 109.50000 418.400000
2752 12498 4872 1 109.50000 418.400000
3015 12498 4872 1 109.50000 418.400000
3810 12499 4873 1 109.50000 418.400000
3810 12499 4874 1 109.50000 418.400000
3810 12499 4875 1 109.50000 418.400000
4873 12499 4874 1 109.50000 418.400000
4873 12499 4875 1 109.50000 418.400000
4874 12499 4875 1 109.50000 418.400000
1451 12500 4876 1 109.50000 418.400000
1451 12500 4877 1 109.50000 418.400000
1451 12500 4878 1 109.50000 418.400000
4876 12500 4877 1 109.50000 418.400000
4876 12500 4878 1 109.50000 418.400000
4877 12500 4878 1 109.50000 418.400000
523 12501 889 1 109.50000 418.400000
523 12501 4879 1 109.50000 418.400000
523 12501 11203 1 109.50000 418.400000
889 12501 4879 1 109.50000 418.400000
889 12501 11203 1 109.50000 418.400000
4879 12501 11203 1 109.50000 418.400000
161 12502 4880 1 109.50000 418.400000
161 12502 4881 1 109.50000 418.400000
161 12502 4882 1 109.50000 418.400000
4880 12502 4881 1 109.50000 418.400000
4880 12502 4882 1 109.50000 418.400000
4881 12502 4882 1 109.50000 418.400000
4722 12503 4883 1 109.50000 418.400000
4722 12503 4884 1 109.50000 418.400000
4722 12503 4885 1 109.50000 418.400000
4883 12503 4884 1 109.50000 418.400000
4883 12503 4885 1 109.50000 418.400000
4884 12503 4885 1 109.50000 418.400000
4887 12504 4888 1 109.50000 418.400000
4887 12504 4889 1 109.50000 418.400000
4887 12504 4890 1 109.50000 418.400000
4888 12504 4889 1 109.50000 418.400000
4888 12504 4890 1 109.50000 418.400000
4889 12504 4890 1 109.50000 418.400000
2426 12505 4891 1 109.50000 418.400000
2426 12505 4892 1 109.50000 418.400000
2426 12505 4893 1 109.50000 418.400000
4891 12505 4892 1 109.50000 418.400000
4891 12505 4893 1 109.50000 418.400000
4892 12505 4893 1 109.50000 418.400000
732 12506 2676 1 109.50000 418.400000
732 12506 4897 1 109.50000 418.400000
732 12506 4898 1 109.50000 418.400000
2676 12506 4897 1 109.50000 418.400000
2676 12506 4898 1 109.50000 418.400000
4897 12506 4898 1 109.50000 418.400000
4902 12507 4903 1 109.50000 418.400000
4902 12507 4904 1 109.50000 418.400000
4902 12507 4905 1 109.50000 418.400000
4903 12507 4904 1 109.50000 418.400000
4903 12507 4905 1 109.50000 418.400000
4904 12507 4905 1 109.50000 418.400000
4906 12508 4907 1 109.50000 418.400000
4906 12508 4908 1 109.50000 418.400000
4906 12508 4909 1 109.50000 418.400000
4907 12508 4908 1 109.50000 418.400000
4907 12508 4909 1 109.50000 418.400000
4908 12508 4909 1 109.50000 418.400000
4910 12509 4911 1 109.50000 418.400000
4910 12509 4912 1 109.50000 418.400000
4910 12509 4913 1 109.50000 418.400000
4911 12509 4912 1 109.50000 418.400000
4911 12509 4913 1 109.50000 418.400000
4912 12509 4913 1 109.50000 418.400000
4914 12510 4915 1 109.50000 418.400000
4914 12510 4916 1 109.50000 418.400000
4914 12510 4917 1 109.50000 418.400000
4915 12510 4916 1 109.50000 418.400000
4915 12510 4917 1 109.50000 418.400000
4916 12510 4917 1 109.50000 418.400000
4918 12511 4919 1 109.50000 418.400000
4918 12511 4920 1 109.50000 418.400000
4918 12511 4921 1 109.50000 418.400000
4919 12511 4920 1 109.50000 418.400000
4919 12511 4921 1 109.50000 418.400000
4920 12511 4921 1 109.50000 418.400000
1302 12512 4923 1 109.50000 418.400000
1302 12512 4924 1 109.50000 418.400000
1302 12512 4925 1 109.50000 418.400000
4923 12512 4924 1 109.50000 418.400000
4923 12512 4925 1 109.50000 418.400000
4924 12512 4925 1 109.50000 418.400000
4458 12513 4926 1 109.50000 418.400000
4458 12513 4927 1 109.50000 418.400000
4458 12513 4928 1 109.50000 418.400000
4926 12513 4927 1 109.50000 418.400000
4926 12513 4928 1 109.50000 418.400000
4927 12513 4928 1 109.50000 418.400000
960 12514 2203 1 109.50000 418.400000
960 12514 4194 1 109.50000 418.400000
960 12514 4931 1 109.50000 418.400000
2203 12514 4194 1 109.50000 418.400000
2203 12514 4931 1 109.50000 418.400000
4194 12514 4931 1 109.50000 418.400000
4933 12515 4934 1 109.50000 418.400000
4933 12515 4935 1 109.50000 418.400000
4933 12515 4936 1 109.50000 418.400000
4934 12515 4935 1 109.50000 418.400000
4934 12515 4936 1 109.50000 418.400000
4935 12515 4936 1 109.50000 418.400000
4941 12516 4942 1 109.50000 418.400000
4941 12516 4943 1 109.50000 418.400000
4941 12516 6815 1 109.50000 418.400000
4942 12516 4943 1 109.50000 418.400000
4942 12516 6815 1 109.50000 418.400000
4943 12516 6815 1 109.50000 418.400000
3850 12517 4944 1 109.50000 418.400000
3850 12517 4945 1 109.50000 418.400000
3850 12517 4946 1 109.50000 418.400000
4944 12517 4945 1 109.50000 418.400000
4944 12517 4946 1 109.50000 418.400000
4945 12517 4946 1 109.50000 418.400000
4744 12518 4947 1 109.50000 418.400000
4744 12518 4948 1 109.50000 418.400000
4744 12518 4949 1 109.50000 418.400000
4947 12518 4948 1 109.50000 418.400000
4947 12518 4949 1 109.50000 418.400000
4948 12518 4949 1 109.50000 418.400000
4950 12519 4951 1 109.50000 418.400000
4950 12519 4952 1 109.50000 418.400000
4950 12519 4953 1 109.50000 418.400000
4951 12519 4952 1 109.50000 418.400000
4951 12519 4953 1 109.50000 418.400000
4952 12519 4953 1 109.50000 418.400000
180 12520 4954 1 109.50000 418.400000
180 12520 4955 1 109.50000 418.400000
180 12520 4956 1 109.50000 418.400000
4954 12520 4955 1 109.50000 418.400000
4954 12520 4956 1 109.50000 418.400000
4955 12520 4956 1 109.50000 418.400000
4957 12521 4958 1 109.50000 418.400000
4957 12521 4959 1 109.50000 418.400000
4957 12521 4960 1 109.50000 418.400000
4958 12521 4959 1 109.50000 418.400000
4958 12521 4960 1 109.50000 418.400000
4959 12521 4960 1 109.50000 418.400000
1777 12522 1943 1 109.50000 418.400000
1777 12522 4962 1 109.50000 418.400000
1777 12522 4963 1 109.50000 418.400000
1943 12522 4962 1 109.50000 418.400000
1943 12522 4963 1 109.50000 418.400000
4962 12522 4963 1 109.50000 418.400000
4780 12523 4964 1 109.50000 418.400000
4780 12523 4965 1 109.50000 418.400000
4780 12523 4966 1 109.50000 418.400000
4964 12523 4965 1 109.50000 418.400000
4964 12523 4966 1 109.50000 418.400000
4965 12523 4966 1 109.50000 418.400000
2296 12524 3299 1 109.50000 418.400000
2296 12524 4967 1 109.50000 418.400000
2296 12524 4968 1 109.50000 418.400000
3299 12524 4967 1 109.50000 418.400000
3299 12524 4968 1 109.50000 418.400000
4967 12524 4968 1 109.50000 418.400000
3679 12525 4969 1 109.50000 418.400000
3679 12525 4970 1 109.50000 418.400000
3679 12525 4971 1 109.50000 418.400000
4969 12525 4970 1 109.50000 418.400000
4969 12525 4971 1 109.50000 418.400000
4970 12525 4971 1 109.50000 418.400000
4972 12526 4973 1 109.50000 418.400000
4972 12526 4974 1 109.50000 418.400000
4972 12526 4975 1 109.50000 418.400000
4973 12526 4974 1 109.50000 418.400000
4973 12526 4975 1 109.50000 418.400000
4974 12526 4975 1 109.50000 418.400000
4244 12527 4976 1 109.50000 418.400000
4244 12527 4977 1 109.50000 418.400000
4244 12527 4978 1 109.50000 418.400000
4976 12527 4977 1 109.50000 418.400000
4976 12527 4978 1 109.50000 418.400000
4977 12527 4978 1 109.50000 418.400000
610 12528 1099 1 109.50000 418.400000
610 12528 4979 1 109.50000 418.400000
610 12528 4980 1 109.50000 418.400000
1099 12528 4979 1 109.50000 418.400000
1099 12528 4980 1 109.50000 418.400000
4979 12528 4980 1 109.50000 418.400000
4600 12529 4983 1 109.50000 418.400000
4600 12529 4984 1 109.50000 418.400000
4600 12529 4985 1 109.50000 418.400000
4983 12529 4984 1 109.50000 418.400000
4983 12529 4985 1 109.50000 418.400000
4984 12529 4985 1 109.50000 418.400000
4986 12530 4987 1 109.50000 418.400000
4986 12530 4988 1 109.50000 418.400000
4986 12530 11067 1 109.50000 418.400000
4987 12530 4988 1 109.50000 418.400000
4987 12530 11067 1 109.50000 418.400000
4988 12530 11067 1 109.50000 418.400000
2405 12531 3614 1 109.50000 418.400000
2405 12531 4381 1 109.50000 418.400000
2405 12531 4989 1 109.50000 418.400000
3614 12531 4381 1 109.50000 418.400000
3614 12531 4989 1 109.50000 418.400000
4381 12531 4989 1 109.50000 418.400000
366 12532 709 1 109.50000 418.400000
366 12532 4992 1 109.50000 418.400000
366 12532 4993 1 109.50000 418.400000
709 12532 4992 1 109.50000 418.400000
709 12532 4993 1 109.50000 418.400000
4992 12532 4993 1 109.50000 418.400000
4994 12533 4995 1 109.50000 418.400000
4994 12533 5969 1 109.50000 418.400000
4994 12533 11164 1 109.50000 418.400000
4995 12533 5969 1 109.50000 418.400000
4995 12533 11164 1 109.50000 418.400000
5969 12533 11164 1 109.50000 418.400000
4998 12534 4999 1 109.50000 418.400000
4998 12534 5000 1 109.50000 418.400000
4998 12534 5001 1 109.50000 418.400000
4999 12534 5000 1 109.50000 418.400000
4999 12534 5001 1 109.50000 418.400000
5000 12534 5001 1 109.50000 418.400000
4232 12535 5002 1 109.50000 418.400000
4232 12535 5003 1 109.50000 418.400000
4232 12535 5004 1 109.50000 418.400000
5002 12535 5003 1 109.50000 418.400000
5002 12535 5004 1 109.50000 418.400000
5003 12535 5004 1 109.50000 418.400000
3383 12536 5005 1 109.50000 418.400000
3383 12536 5006 1 109.50000 418.400000
3383 12536 5007 1 109.50000 418.400000
5005 12536 5006 1 109.50000 418.400000
5005 12536 5007 1 109.50000 418.400000
5006 12536 5007 1 109.50000 418.400000
1849 12537 2202 1 109.50000 418.400000
1849 12537 5008 1 109.50000 418.400000
1849 12537 5009 1 109.50000 418.400000
2202 12537 5008 1 109.50000 418.400000
2202 12537 5009 1 109.50000 418.400000
5008 12537 5009 1 109.50000 418.400000
5010 12538 5013 1 109.50000 418.400000
5010 12538 5858 1 109.50000 418.400000
5010 12538 7761 1 109.50000 418.400000
5013 12538 5858 1 109.50000 418.400000
5013 12538 7761 1 109.50000 418.400000
5858 12538 7761 1 109.50000 418.400000
5014 12539 5015 1 109.50000 418.400000
5014 12539 5016 1 109.50000 418.400000
5014 12539 5017 1 109.50000 418.400000
5015 12539 5016 1 109.50000 418.400000
5015 12539 5017 1 109.50000 418.400000
5016 12539 5017 1 109.50000 418.400000
1642 12540 5018 1 109.50000 418.400000
1642 12540 5019 1 109.50000 418.400000
1642 12540 5020 1 109.50000 418.400000
5018 12540 5019 1 109.50000 418.400000
5018 12540 5020 1 109.50000 418.400000
5019 12540 5020 1 109.50000 418.400000
2123 12541 3310 1 109.50000 418.400000
2123 12541 5021 1 109.50000 418.400000
2123 12541 10156 1 109.50000 418.400000
3310 12541 5021 1 109.50000 418.400000
3310 12541 10156 1 109.50000 418.400000
5021 12541 10156 1 109.50000 418.400000
5022 12542 5023 1 109.50000 418.400000
5022 12542 5024 1 109.50000 418.400000
5022 12542 5025 1 109.50000 418.400000
5023 12542 5024 1 109.50000 418.400000
5023 12542 5025 1 109.50000 418.400000
5024 12542 5025 1 109.50000 418.400000
2883 12543 3713 1 109.50000 418.400000
2883 12543 5026 1 109.50000 418.400000
2883 12543 5027 1 109.50000 418.400000
3713 12543 5026 1 109.50000 418.400000
3713 12543 5027 1 109.50000 418.400000
5026 12543 5027 1 109.50000 418.400000
446 12544 4191 1 109.50000 418.400000
446 12544 5029 1 109.50000 418.400000
446 12544 6715 1 109.50000 418.400000
4191 12544 5029 1 109.50000 418.400000
4191 12544 6715 1 109.50000 418.400000
5029 12544 6715 1 109.50000 418.400000
5032 12545 5033 1 109.50000 418.400000
5032 12545 5034 1 109.50000 418.400000
5032 12545 5035 1 109.50000 418.400000
5033 12545 5034 1 109.50000 418.400000
5033 12545 5035 1 109.50000 418.400000
5034 12545 5035 1 109.50000 418.400000
431 12546 3753 1 109.50000 418.400000
431 12546 5036 1 109.50000 418.400000
431 12546 5037 1 109.50000 418.400000
3753 12546 5036 1 109.50000 418.400000
3753 12546 5037 1 109.50000 418.400000
5036 12546 5037 1 109.50000 418.400000
5039 12547 5040 1 109.50000 418.400000
5039 12547 5041 1 109.50000 418.400000
5039 12547 5042 1 109.50000 418.400000
5040 12547 5041 1 109.50000 418.400000
5040 12547 5042 1 109.50000 418.400000
5041 12547 5042 1 109.50000 418.400000
4571 12548 5045 1 109.50000 418.400000
4571 12548 5046 1 109.50000 418.400000
4571 12548 5047 1 109.50000 418.400000
5045 12548 5046 1 109.50000 418.400000
5045 12548 5047 1 109.50000 418.400000
5046 12548 5047 1 109.50000 418.400000
5048 12549 5050 1 109.50000 418.400000
5048 12549 5051 1 109.50000 418.400000
5048 12549 11090 1 109.50000 418.400000
5050 12549 5051 1 109.50000 418.400000
5050 12549 11090 1 109.50000 418.400000
5051 12549 11090 1 109.50000 418.400000
2601 12550 4876 1 109.50000 418.400000
2601 12550 5052 1 109.50000 418.400000
2601 12550 5053 1 109.50000 418.400000
4876 12550 5052 1 109.50000 418.400000
4876 12550 5053 1 109.50000 418.400000
5052 12550 5053 1 109.50000 418.400000
4182 12551 5056 1 109.50000 418.400000
4182 12551 5057 1 109.50000 418.400000
4182 12551 5058 1 109.50000 418.400000
5056 12551 5057 1 109.50000 418.400000
5056 12551 5058 1 109.50000 418.400000
5057 12551 5058 1 109.50000 418.400000
1660 12552 4690 1 109.50000 418.400000
1660 12552 5060 1 109.50000 418.400000
1660 12552 5061 1 109.50000 418.400000
4690 12552 5060 1 109.50000 418.400000
4690 12552 5061 1 109.50000 418.400000
5060 12552 5061 1 109.50000 418.400000
1139 12553 5062 1 109.50000 418.400000
1139 12553 5063 1 109.50000 418.400000
1139 12553 5064 1 109.50000 418.400000
5062 12553 5063 1 109.50000 418.400000
5062 12553 5064 1 109.50000 418.400000
5063 12553 5064 1 109.50000 418.400000
647 12554 5065 1 109.50000 418.400000
647 12554 5066 1 109.50000 418.400000
647 12554 5067 1 109.50000 418.400000
5065 12554 5066 1 109.50000 418.400000
5065 12554 5067 1 109.50000 418.400000
5066 12554 5067 1 109.50000 418.400000
3535 12555 5068 1 109.50000 418.400000
3535 12555 5069 1 109.50000 418.400000
3535 12555 5070 1 109.50000 418.400000
5068 12555 5069 1 109.50000 418.400000
5068 12555 5070 1 109.50000 418.400000
5069 12555 5070 1 109.50000 418.400000
4545 12556 5071 1 109.50000 418.400000
4545 12556 5072 1 109.50000 418.400000
4545 12556 5073 1 109.50000 418.400000
5071 12556 5072 1 109.50000 418.400000
5071 12556 5073 1 109.50000 418.400000
5072 12556 5073 1 109.50000 418.400000
5074 12557 5075 1 109.50000 418.400000
5074 12557 5076 1 109.50000 418.400000
5074 12557 5077 1 109.50000 418.400000
5075 12557 5076 1 109.50000 418.400000
5075 12557 5077 1 109.50000 418.400000
5076 12557 5077 1 109.50000 418.400000
2142 12558 5078 1 109.50000 418.400000
2142 12558 5079 1 109.50000 418.400000
2142 12558 5080 1 109.50000 418.400000
5078 12558 5079 1 109.50000 418.400000
5078 12558 5080 1 109.50000 418.400000
5079 12558 5080 1 109.50000 418.400000
376 12559 2161 1 109.50000 418.400000
376 12559 5081 1 109.50000 418.400000
376 12559 5082 1 109.50000 418.400000
2161 12559 5081 1 109.50000 418.400000
2161 12559 5082 1 109.50000 418.400000
5081 12559 5082 1 109.50000 418.400000
35 12560 425 1 109.50000 418.400000
35 12560 5083 1 109.50000 418.400000
35 12560 5084 1 109.50000 418.400000
425 12560 5083 1 109.50000 418.400000
425 12560 5084 1 109.50000 418.400000
5083 12560 5084 1 109.50000 418.400000
4222 12561 5085 1 109.50000 418.400000
4222 12561 5086 1 109.50000 418.400000
4222 12561 5087 1 109.50000 418.400000
5085 12561 5086 1 109.50000 418.400000
5085 12561 5087 1 109.50000 418.400000
5086 12561 5087 1 109.50000 418.400000
5088 12562 5089 1 109.50000 418.400000
5088 12562 5090 1 109.50000 418.400000
5088 12562 5091 1 109.50000 418.400000
5089 12562 5090 1 109.50000 418.400000
5089 12562 5091 1 109.50000 418.400000
5090 12562 5091 1 109.50000 418.400000
5092 12563 5093 1 109.50000 418.400000
5092 12563 5094 1 109.50000 418.400000
5092 12563 5095 1 109.50000 418.400000
5093 12563 5094 1 109.50000 418.400000
5093 12563 5095 1 109.50000 418.400000
5094 12563 5095 1 109.50000 418.400000
5096 12564 5097 1 109.50000 418.400000
5096 12564 5098 1 109.50000 418.400000
5096 12564 5099 1 109.50000 418.400000
5097 12564 5098 1 109.50000 418.400000
5097 12564 5099 1 109.50000 418.400000
5098 12564 5099 1 109.50000 418.400000
5100 12565 5101 1 109.50000 418.400000
5100 12565 5102 1 109.50000 418.400000
5100 12565 5103 1 109.50000 418.400000
5101 12565 5102 1 109.50000 418.400000
5101 12565 5103 1 109.50000 418.400000
5102 12565 5103 1 109.50000 418.400000
2997 12566 4997 1 109.50000 418.400000
2997 12566 5106 1 109.50000 418.400000
2997 12566 5107 1 109.50000 418.400000
4997 12566 5106 1 109.50000 418.400000
4997 12566 5107 1 109.50000 418.400000
5106 12566 5107 1 109.50000 418.400000
5108 12567 5109 1 109.50000 418.400000
5108 12567 5110 1 109.50000 418.400000
5108 12567 5111 1 109.50000 418.400000
5109 12567 5110 1 109.50000 418.400000
5109 12567 5111 1 109.50000 418.400000
5110 12567 5111 1 109.50000 418.400000
5112 12568 5113 1 109.50000 418.400000
5112 12568 5114 1 109.50000 418.400000
5112 12568 6356 1 109.50000 418.400000
5113 12568 5114 1 109.50000 418.400000
5113 12568 6356 1 109.50000 418.400000
5114 12568 6356 1 109.50000 418.400000
2175 12569 4734 1 109.50000 418.400000
2175 12569 5116 1 109.50000 418.400000
2175 12569 5117 1 109.50000 418.400000
4734 12569 5116 1 109.50000 418.400000
4734 12569 5117 1 109.50000 418.400000
5116 12569 5117 1 109.50000 418.400000
5118 12570 5119 1 109.50000 418.400000
5118 12570 5120 1 109.50000 418.400000
5118 12570 5121 1 109.50000 418.400000
5119 12570 5120 1 109.50000 418.400000
5119 12570 5121 1 109.50000 418.400000
5120 12570 5121 1 109.50000 418.400000
360 12571 5122 1 109.50000 418.400000
360 12571 5123 1 109.50000 418.400000
360 12571 5124 1 109.50000 418.400000
5122 12571 5123 1 109.50000 418.400000
5122 12571 5124 1 109.50000 418.400000
5123 12571 5124 1 109.50000 418.400000
2806 12572 5123 1 109.50000 418.400000
2806 12572 5125 1 109.50000 418.400000
2806 12572 5126 1 109.50000 418.400000
5123 12572 5125 1 109.50000 418.400000
5123 12572 5126 1 109.50000 418.400000
5125 12572 5126 1 109.50000 418.400000
1653 12573 5127 1 109.50000 418.400000
1653 12573 5128 1 109.50000 418.400000
1653 12573 5129 1 109.50000 418.400000
5127 12573 5128 1 109.50000 418.400000
5127 12573 5129 1 109.50000 418.400000
5128 12573 5129 1 109.50000 418.400000
2109 12574 4061 1 109.50000 418.400000
2109 12574 5133 1 109.50000 418.400000
2109 12574 5134 1 109.50000 418.400000
4061 12574 5133 1 109.50000 418.400000
4061 12574 5134 1 109.50000 418.400000
5133 12574 5134 1 109.50000 418.400000
5137 12575 5138 1 109.50000 418.400000
5137 12575 5139 1 109.50000 418.400000
5137 12575 5140 1 109.50000 418.400000
5138 12575 5139 1 109.50000 418.400000
5138 12575 5140 1 109.50000 418.400000
5139 12575 5140 1 109.50000 418.400000
5144 12576 5145 1 109.50000 418.400000
5144 12576 5146 1 109.50000 418.400000
5144 12576 5147 1 109.50000 418.400000
5145 12576 5146 1 109.50000 418.400000
5145 12576 5147 1 109.50000 418.400000
5146 12576 5147 1 109.50000 418.400000
1770 12577 5148 1 109.50000 418.400000
1770 12577 5149 1 109.50000 418.400000
1770 12577 5150 1 109.50000 418.400000
5148 12577 5149 1 109.50000 418.400000
5148 12577 5150 1 109.50000 418.400000
5149 12577 5150 1 109.50000 418.400000
3180 12578 5151 1 109.50000 418.400000
3180 12578 5152 1 109.50000 418.400000
3180 12578 5153 1 109.50000 418.400000
5151 12578 5152 1 109.50000 418.400000
5151 12578 5153 1 109.50000 418.400000
5152 12578 5153 1 109.50000 418.400000
700 12579 5154 1 109.50000 418.400000
700 12579 5155 1 109.50000 418.400000
700 12579 5156 1 109.50000 418.400000
5154 12579 5155 1 109.50000 418.400000
5154 12579 5156 1 109.50000 418.400000
5155 12579 5156 1 109.50000 418.400000
5157 12580 5158 1 109.50000 418.400000
5157 12580 5159 1 109.50000 418.400000
5157 12580 5160 1 109.50000 418.400000
5158 12580 5159 1 109.50000 418.400000
5158 12580 5160 1 109.50000 418.400000
5159 12580 5160 1 109.50000 418.400000
293 12581 2937 1 109.50000 418.400000
293 12581 5162 1 109.50000 418.400000
293 12581 9999 1 109.50000 418.400000
2937 12581 5162 1 109.50000 418.400000
2937 12581 9999 1 109.50000 418.400000
5162 12581 9999 1 109.50000 418.400000
3686 12582 5163 1 109.50000 418.400000
3686 12582 5164 1 109.50000 418.400000
3686 12582 11187 1 109.50000 418.400000
5163 12582 5164 1 109.50000 418.400000
5163 12582 11187 1 109.50000 418.400000
5164 12582 11187 1 109.50000 418.400000
342 12583 4193 1 109.50000 418.400000
342 12583 5165 1 109.50000 418.400000
342 12583 5166 1 109.50000 418.400000
4193 12583 5165 1 109.50000 418.400000
4193 12583 5166 1 109.50000 418.400000
5165 12583 5166 1 109.50000 418.400000
1978 12584 2985 1 109.50000 418.400000
1978 12584 5167 1 109.50000 418.400000
1978 12584 5168 1 109.50000 418.400000
2985 12584 5167 1 109.50000 418.400000
2985 12584 5168 1 109.50000 418.400000
5167 12584 5168 1 109.50000 418.400000
1205 12585 3777 1 109.50000 418.400000
1205 12585 5169 1 109.50000 418.400000
1205 12585 5170 1 109.50000 418.400000
3777 12585 5169 1 109.50000 418.400000
3777 12585 5170 1 109.50000 418.400000
5169 12585 5170 1 109.50000 418.400000
2994 12586 3386 1 109.50000 418.400000
2994 12586 3688 1 109.50000 418.400000
2994 12586 5171 1 109.50000 418.400000
3386 12586 3688 1 109.50000 418.400000
3386 12586 5171 1 109.50000 418.400000
3688 12586 5171 1 109.50000 418.400000
5175 12587 5176 1 109.50000 418.400000
5175 12587 5177 1 109.50000 418.400000
5175 12587 5178 1 109.50000 418.400000
5176 12587 5177 1 109.50000 418.400000
5176 12587 5178 1 109.50000 418.400000
5177 12587 5178 1 109.50000 418.400000
3095 12588 5179 1 109.50000 418.400000
3095 12588 5180 1 109.50000 418.400000
3095 12588 5181 1 109.50000 418.400000
5179 12588 5180 1 109.50000 418.400000
5179 12588 5181 1 109.50000 418.400000
5180 12588 5181 1 109.50000 418.400000
2852 12589 5182 1 109.50000 418.400000
2852 12589 5183 1 109.50000 418.400000
2852 12589 5184 1 109.50000 418.400000
5182 12589 5183 1 109.50000 418.400000
5182 12589 5184 1 109.50000 418.400000
5183 12589 5184 1 109.50000 418.400000
5185 12590 5186 1 109.50000 418.400000
5185 12590 5187 1 109.50000 418.400000
5185 12590 5745 1 109.50000 418.400000
5186 12590 5187 1 109.50000 418.400000
5186 12590 5745 1 109.50000 418.400000
5187 12590 5745 1 109.50000 418.400000
2188 12591 3950 1 109.50000 418.400000
2188 12591 5008 1 109.50000 418.400000
2188 12591 5190 1 109.50000 418.400000
3950 12591 5008 1 109.50000 418.400000
3950 12591 5190 1 109.50000 418.400000
5008 12591 5190 1 109.50000 418.400000
4022 12592 5191 1 109.50000 418.400000
4022 12592 5192 1 109.50000 418.400000
4022 12592 5193 1 109.50000 418.400000
5191 12592 5192 1 109.50000 418.400000
5191 12592 5193 1 109.50000 418.400000
5192 12592 5193 1 109.50000 418.400000
2592 12593 5194 1 109.50000 418.400000
2592 12593 5195 1 109.50000 418.400000
2592 12593 5196 1 109.50000 418.400000
5194 12593 5195 1 109.50000 418.400000
5194 12593 5196 1 109.50000 418.400000
5195 12593 5196 1 109.50000 418.400000
4821 12594 5197 1 109.50000 418.400000
4821 12594 5198 1 109.50000 418.400000
4821 12594 5199 1 109.50000 418.400000
5197 12594 5198 1 109.50000 418.400000
5197 12594 5199 1 109.50000 418.400000
5198 12594 5199 1 109.50000 418.400000
987 12595 5200 1 109.50000 418.400000
987 12595 5201 1 109.50000 418.400000
987 12595 5202 1 109.50000 418.400000
5200 12595 5201 1 109.50000 418.400000
5200 12595 5202 1 109.50000 418.400000
5201 12595 5202 1 109.50000 418.400000
5203 12596 5204 1 109.50000 418.400000
5203 12596 5205 1 109.50000 418.400000
5203 12596 6479 1 109.50000 418.400000
5204 12596 5205 1 109.50000 418.400000
5204 12596 6479 1 109.50000 418.400000
5205 12596 6479 1 109.50000 418.400000
5206 12597 5208 1 109.50000 418.400000
5206 12597 5209 1 109.50000 418.400000
5206 12597 5955 1 109.50000 418.400000
5208 12597 5209 1 109.50000 418.400000
5208 12597 5955 1 109.50000 418.400000
5209 12597 5955 1 109.50000 418.400000
5210 12598 5211 1 109.50000 418.400000
5210 12598 5212 1 109.50000 418.400000
5210 12598 5213 1 109.50000 418.400000
5211 12598 5212 1 109.50000 418.400000
5211 12598 5213 1 109.50000 418.400000
5212 12598 5213 1 109.50000 418.400000
2023 12599 5214 1 109.50000 418.400000
2023 12599 5215 1 109.50000 418.400000
2023 12599 5216 1 109.50000 418.400000
5214 12599 5215 1 109.50000 418.400000
5214 12599 5216 1 109.50000 418.400000
5215 12599 5216 1 109.50000 418.400000
5217 12600 5218 1 109.50000 418.400000
5217 12600 5219 1 109.50000 418.400000
5217 12600 5220 1 109.50000 418.400000
5218 12600 5219 1 109.50000 418.400000
5218 12600 5220 1 109.50000 418.400000
5219 12600 5220 1 109.50000 418.400000
1204 12601 1782 1 109.50000 418.400000
1204 12601 3778 1 109.50000 418.400000
1204 12601 5222 1 109.50000 418.400000
1782 12601 3778 1 109.50000 418.400000
1782 12601 5222 1 109.50000 418.400000
3778 12601 5222 1 109.50000 418.400000
5224 12602 5225 1 109.50000 418.400000
5224 12602 5226 1 109.50000 418.400000
5224 12602 8421 1 109.50000 418.400000
5225 12602 5226 1 109.50000 418.400000
5225 12602 8421 1 109.50000 418.400000
5226 12602 8421 1 109.50000 418.400000
5227 12603 5228 1 109.50000 418.400000
5227 12603 5229 1 109.50000 418.400000
5227 12603 5230 1 109.50000 418.400000
5228 12603 5229 1 109.50000 418.400000
5228 12603 5230 1 109.50000 418.400000
5229 12603 5230 1 109.50000 418.400000
317 12604 5232 1 109.50000 418.400000
317 12604 5233 1 109.50000 418.400000
317 12604 10628 1 109.50000 418.400000
5232 12604 5233 1 109.50000 418.400000
5232 12604 10628 1 109.50000 418.400000
5233 12604 10628 1 109.50000 418.400000
1258 12605 3717 1 109.50000 418.400000
1258 12605 5236 1 109.50000 418.400000
1258 12605 5237 1 109.50000 418.400000
3717 12605 5236 1 109.50000 418.400000
3717 12605 5237 1 109.50000 418.400000
5236 12605 5237 1 109.50000 418.400000
5238 12606 5240 1 109.50000 418.400000
5238 12606 5241 1 109.50000 418.400000
5238 12606 9128 1 109.50000 418.400000
5240 12606 5241 1 109.50000 418.400000
5240 12606 9128 1 109.50000 418.400000
5241 12606 9128 1 109.50000 418.400000
5242 12607 5243 1 109.50000 418.400000
5242 12607 5244 1 109.50000 418.400000
5242 12607 5245 1 109.50000 418.400000
5243 12607 5244 1 109.50000 418.400000
5243 12607 5245 1 109.50000 418.400000
5244 12607 5245 1 109.50000 418.400000
1497 12608 5246 1 109.50000 418.400000
1497 12608 5247 1 109.50000 418.400000
1497 12608 5248 1 109.50000 418.400000
5246 12608 5247 1 109.50000 418.400000
5246 12608 5248 1 109.50000 418.400000
5247 12608 5248 1 109.50000 418.400000
5249 12609 5250 1 109.50000 418.400000
5249 12609 5251 1 109.50000 418.400000
5249 12609 11171 1 109.50000 418.400000
5250 12609 5251 1 109.50000 418.400000
5250 12609 11171 1 109.50000 418.400000
5251 12609 11171 1 109.50000 418.400000
5253 12610 5254 1 109.50000 418.400000
5253 12610 5255 1 109.50000 418.400000
5253 12610 6222 1 109.50000 418.400000
5254 12610 5255 1 109.50000 418.400000
5254 12610 6222 1 109.50000 418.400000
5255 12610 6222 1 109.50000 418.400000
3632 12611 4521 1 109.50000 418.400000
3632 12611 5258 1 109.50000 418.400000
3632 12611 5259 1 109.50000 418.400000
4521 12611 5258 1 109.50000 418.400000
4521 12611 5259 1 109.50000 418.400000
5258 12611 5259 1 109.50000 418.400000
561 12612 5262 1 109.50000 418.400000
561 12612 5263 1 109.50000 418.400000
561 12612 5264 1 109.50000 418.400000
5262 12612 5263 1 109.50000 418.400000
5262 12612 5264 1 109.50000 418.400000
5263 12612 5264 1 109.50000 418.400000
1242 12613 5265 1 109.50000 418.400000
1242 12613 5266 1 109.50000 418.400000
1242 12613 9329 1 109.50000 418.400000
5265 12613 5266 1 109.50000 418.400000
5265 12613 9329 1 109.50000 418.400000
5266 12613 9329 1 109.50000 418.400000
5267 12614 5268 1 109.50000 418.400000
5267 12614 5269 1 109.50000 418.400000
5267 12614 5270 1 109.50000 418.400000
5268 12614 5269 1 109.50000 418.400000
5268 12614 5270 1 109.50000 418.400000
5269 12614 5270 1 109.50000 418.400000
1309 12615 5271 1 109.50000 418.400000
1309 12615 5272 1 109.50000 418.400000
1309 12615 5273 1 109.50000 418.400000
5271 12615 5272 1 109.50000 418.400000
5271 12615 5273 1 109.50000 418.400000
5272 12615 5273 1 109.50000 418.400000
848 12616 5274 1 109.50000 418.400000
848 12616 5275 1 109.50000 418.400000
848 12616 5276 1 109.50000 418.400000
5274 12616 5275 1 109.50000 418.400000
5274 12616 5276 1 109.50000 418.400000
5275 12616 5276 1 109.50000 418.400000
5277 12617 5278 1 109.50000 418.400000
5277 12617 5279 1 109.50000 418.400000
5277 12617 5280 1 109.50000 418.400000
5278 12617 5279 1 109.50000 418.400000
5278 12617 5280 1 109.50000 418.400000
5279 12617 5280 1 109.50000 418.400000
5281 12618 5282 1 109.50000 418.400000
5281 12618 5283 1 109.50000 418.400000
5281 12618 5284 1 109.50000 418.400000
5282 12618 5283 1 109.50000 418.400000
5282 12618 5284 1 109.50000 418.400000
5283 12618 5284 1 109.50000 418.400000
432 12619 674 1 109.50000 418.400000
432 12619 5285 1 109.50000 418.400000
432 12619 5286 1 109.50000 418.400000
674 12619 5285 1 109.50000 418.400000
674 12619 5286 1 109.50000 418.400000
5285 12619 5286 1 109.50000 418.400000
2789 12620 5289 1 109.50000 418.400000
2789 12620 5290 1 109.50000 418.400000
2789 12620 5291 1 109.50000 418.400000
5289 12620 5290 1 109.50000 418.400000
5289 12620 5291 1 109.50000 418.400000
5290 12620 5291 1 109.50000 418.400000
861 12621 5292 1 109.50000 418.400000
861 12621 5293 1 109.50000 418.400000
861 12621 5294 1 109.50000 418.400000
5292 12621 5293 1 109.50000 418.400000
5292 12621 5294 1 109.50000 418.400000
5293 12621 5294 1 109.50000 418.400000
25 12622 5295 1 109.50000 418.400000
25 12622 5296 1 109.50000 418.400000
25 12622 5297 1 109.50000 418.400000
5295 12622 5296 1 109.50000 418.400000
5295 12622 5297 1 109.50000 418.400000
5296 12622 5297 1 109.50000 418.400000
336 12623 5300 1 109.50000 418.400000
336 12623 5301 1 109.50000 418.400000
336 12623 5302 1 109.50000 418.400000
5300 12623 5301 1 109.50000 418.400000
5300 12623 5302 1 109.50000 418.400000
5301 12623 5302 1 109.50000 418.400000
1174 12624 1666 1 109.50000 418.400000
1174 12624 5303 1 109.50000 418.400000
1174 12624 5304 1 109.50000 418.400000
1666 12624 5303 1 109.50000 418.400000
1666 12624 5304 1 109.50000 418.400000
5303 12624 5304 1 109.50000 418.400000
804 12625 5305 1 109.50000 418.400000
804 12625 5306 1 109.50000 418.400000
804 12625 5307 1 109.50000 418.400000
5305 12625 5306 1 109.50000 418.400000
5305 12625 5307 1 109.50000 418.400000
5306 12625 5307 1 109.50000 418.400000
5308 12626 5309 1 109.50000 418.400000
5308 12626 5310 1 109.50000 418.400000
5308 12626 5311 1 109.50000 418.400000
5309 12626 5310 1 109.50000 418.400000
5309 12626 5311 1 109.50000 418.400000
5310 12626 5311 1 109.50000 418.400000
608 12627 1963 1 109.50000 418.400000
608 12627 4210 1 109.50000 418.400000
608 12627 5312 1 109.50000 418.400000
1963 12627 4210 1 109.50000 418.400000
1963 12627 5312 1 109.50000 418.400000
4210 12627 5312 1 109.50000 418.400000
5313 12628 5314 1 109.50000 418.400000
5313 12628 5315 1 109.50000 418.400000
5313 12628 5316 1 109.50000 418.400000
5314 12628 5315 1 109.50000 418.400000
5314 12628 5316 1 109.50000 418.400000
5315 12628 5316 1 109.50000 418.400000
5317 12629 5318 1 109.50000 418.400000
5317 12629 5319 1 109.50000 418.400000
5317 12629 5320 1 109.50000 418.400000
5318 12629 5319 1 109.50000 418.400000
5318 12629 5320 1 109.50000 418.400000
5319 12629 5320 1 109.50000 418.400000
1196 12630 5321 1 109.50000 418.400000
1196 12630 5322 1 109.50000 418.400000
1196 12630 5323 1 109.50000 418.400000
5321 12630 5322 1 109.50000 418.400000
5321 12630 5323 1 109.50000 418.400000
5322 12630 5323 1 109.50000 418.400000
2764 12631 5326 1 109.50000 418.400000
2764 12631 5327 1 109.50000 418.400000
2764 12631 5328 1 109.50000 418.400000
5326 12631 5327 1 109.50000 418.400000
5326 12631 5328 1 109.50000 418.400000
5327 12631 5328 1 109.50000 418.400000
1792 12632 4654 1 109.50000 418.400000
1792 12632 5158 1 109.50000 418.400000
1792 12632 5329 1 109.50000 418.400000
4654 12632 5158 1 109.50000 418.400000
4654 12632 5329 1 109.50000 418.400000
5158 12632 5329 1 109.50000 418.400000
1317 12633 5330 1 109.50000 418.400000
1317 12633 5331 1 109.50000 418.400000
1317 12633 5332 1 109.50000 418.400000
5330 12633 5331 1 109.50000 418.400000
5330 12633 5332 1 109.50000 418.400000
5331 12633 5332 1 109.50000 418.400000
3331 12634 4327 1 109.50000 418.400000
3331 12634 5333 1 109.50000 418.400000
3331 12634 5334 1 109.50000 418.400000
4327 12634 5333 1 109.50000 418.400000
4327 12634 5334 1 109.50000 418.400000
5333 12634 5334 1 109.50000 418.400000
5336 12635 9892 1 109.50000 418.400000
5336 12635 10576 1 109.50000 418.400000
5336 12635 10681 1 109.50000 418.400000
9892 12635 10576 1 109.50000 418.400000
9892 12635 10681 1 109.50000 418.400000
10576 12635 10681 1 109.50000 418.400000
5308 12636 5339 1 109.50000 418.400000
5308 12636 5340 1 109.50000 418.400000
5308 12636 5341 1 109.50000 418.400000
5339 12636 5340 1 109.50000 418.400000
5339 12636 5341 1 109.50000 418.400000
5340 12636 5341 1 109.50000 418.400000
268 12637 1769 1 109.50000 418.400000
268 12637 5342 1 109.50000 418.400000
268 12637 5343 1 109.50000 418.400000
1769 12637 5342 1 109.50000 418.400000
1769 12637 5343 1 109.50000 418.400000
5342 12637 5343 1 109.50000 418.400000
454 12638 5345 1 109.50000 418.400000
454 12638 5346 1 109.50000 418.400000
454 12638 5347 1 109.50000 418.400000
5345 12638 5346 1 109.50000 418.400000
5345 12638 5347 1 109.50000 418.400000
5346 12638 5347 1 109.50000 418.400000
3794 12639 5348 1 109.50000 418.400000
3794 12639 5349 1 109.50000 418.400000
3794 12639 5350 1 109.50000 418.400000
5348 12639 5349 1 109.50000 418.400000
5348 12639 5350 1 109.50000 418.400000
5349 12639 5350 1 109.50000 418.400000
4901 12640 5155 1 109.50000 418.400000
4901 12640 5354 1 109.50000 418.400000
4901 12640 5355 1 109.50000 418.400000
5155 12640 5354 1 109.50000 418.400000
5155 12640 5355 1 109.50000 418.400000
5354 12640 5355 1 109.50000 418.400000
5357 12641 5358 1 109.50000 418.400000
5357 12641 5359 1 109.50000 418.400000
5357 12641 5360 1 109.50000 418.400000
5358 12641 5359 1 109.50000 418.400000
5358 12641 5360 1 109.50000 418.400000
5359 12641 5360 1 109.50000 418.400000
2087 12642 5361 1 109.50000 418.400000
2087 12642 5362 1 109.50000 418.400000
2087 12642 5363 1 109.50000 418.400000
5361 12642 5362 1 109.50000 418.400000
5361 12642 5363 1 109.50000 418.400000
5362 12642 5363 1 109.50000 418.400000
130 12643 1376 1 109.50000 418.400000
130 12643 5364 1 109.50000 418.400000
130 12643 5365 1 109.50000 418.400000
1376 12643 5364 1 109.50000 418.400000
1376 12643 5365 1 109.50000 418.400000
5364 12643 5365 1 109.50000 418.400000
4024 12644 5366 1 109.50000 418.400000
4024 12644 5367 1 109.50000 418.400000
4024 12644 5368 1 109.50000 418.400000
5366 12644 5367 1 109.50000 418.400000
5366 12644 5368 1 109.50000 418.400000
5367 12644 5368 1 109.50000 418.400000
3416 12645 5369 1 109.50000 418.400000
3416 12645 5370 1 109.50000 418.400000
3416 12645 5371 1 109.50000 418.400000
5369 12645 5370 1 109.50000 418.400000
5369 12645 5371 1 109.50000 418.400000
5370 12645 5371 1 109.50000 418.400000
1613 12646 2514 1 109.50000 418.400000
1613 12646 3459 1 109.50000 418.400000
1613 12646 5372 1 109.50000 418.400000
2514 12646 3459 1 109.50000 418.400000
2514 12646 5372 1 109.50000 418.400000
3459 12646 5372 1 109.50000 418.400000
5377 12647 5378 1 109.50000 418.400000
5377 12647 5419 1 109.50000 418.400000
5377 12647 7144 1 109.50000 418.400000
5378 12647 5419 1 109.50000 418.400000
5378 12647 7144 1 109.50000 418.400000
5419 12647 7144 1 109.50000 418.400000
2851 12648 4924 1 109.50000 418.400000
2851 12648 5379 1 109.50000 418.400000
2851 12648 5380 1 109.50000 418.400000
4924 12648 5379 1 109.50000 418.400000
4924 12648 5380 1 109.50000 418.400000
5379 12648 5380 1 109.50000 418.400000
858 12649 871 1 109.50000 418.400000
858 12649 966 1 109.50000 418.400000
858 12649 5381 1 109.50000 418.400000
871 12649 966 1 109.50000 418.400000
871 12649 5381 1 109.50000 418.400000
966 12649 5381 1 109.50000 418.400000
1147 12650 5382 1 109.50000 418.400000
1147 12650 5383 1 109.50000 418.400000
1147 12650 5384 1 109.50000 418.400000
5382 12650 5383 1 109.50000 418.400000
5382 12650 5384 1 109.50000 418.400000
5383 12650 5384 1 109.50000 418.400000
5181 12651 5385 1 109.50000 418.400000
5181 12651 5386 1 109.50000 418.400000
5181 12651 5387 1 109.50000 418.400000
5385 12651 5386 1 109.50000 418.400000
5385 12651 5387 1 109.50000 418.400000
5386 12651 5387 1 109.50000 418.400000
3806 12652 5388 1 109.50000 418.400000
3806 12652 5389 1 109.50000 418.400000
3806 12652 5390 1 109.50000 418.400000
5388 12652 5389 1 109.50000 418.400000
5388 12652 5390 1 109.50000 418.400000
5389 12652 5390 1 109.50000 418.400000
5395 12653 5396 1 109.50000 418.400000
5395 12653 5397 1 109.50000 418.400000
5395 12653 5398 1 109.50000 418.400000
5396 12653 5397 1 109.50000 418.400000
5396 12653 5398 1 109.50000 418.400000
5397 12653 5398 1 109.50000 418.400000
5399 12654 5400 1 109.50000 418.400000
5399 12654 5401 1 109.50000 418.400000
5399 12654 5402 1 109.50000 418.400000
5400 12654 5401 1 109.50000 418.400000
5400 12654 5402 1 109.50000 418.400000
5401 12654 5402 1 109.50000 418.400000
5276 12655 5403 1 109.50000 418.400000
5276 12655 5404 1 109.50000 418.400000
5276 12655 5405 1 109.50000 418.400000
5403 12655 5404 1 109.50000 418.400000
5403 12655 5405 1 109.50000 418.400000
5404 12655 5405 1 109.50000 418.400000
4678 12656 5406 1 109.50000 418.400000
4678 12656 5407 1 109.50000 418.400000
4678 12656 5408 1 109.50000 418.400000
5406 12656 5407 1 109.50000 418.400000
5406 12656 5408 1 109.50000 418.400000
5407 12656 5408 1 109.50000 418.400000
315 12657 1617 1 109.50000 418.400000
315 12657 5409 1 109.50000 418.400000
315 12657 5410 1 109.50000 418.400000
1617 12657 5409 1 109.50000 418.400000
1617 12657 5410 1 109.50000 418.400000
5409 12657 5410 1 109.50000 418.400000
2695 12658 5124 1 109.50000 418.400000
2695 12658 5411 1 109.50000 418.400000
2695 12658 5412 1 109.50000 418.400000
5124 12658 5411 1 109.50000 418.400000
5124 12658 5412 1 109.50000 418.400000
5411 12658 5412 1 109.50000 418.400000
5370 12659 5417 1 109.50000 418.400000
5370 12659 5418 1 109.50000 418.400000
5370 12659 5419 1 109.50000 418.400000
5417 12659 5418 1 109.50000 418.400000
5417 12659 5419 1 109.50000 418.400000
5418 12659 5419 1 109.50000 418.400000
5420 12660 5421 1 109.50000 418.400000
5420 12660 5422 1 109.50000 418.400000
5420 12660 5423 1 109.50000 418.400000
5421 12660 5422 1 109.50000 418.400000
5421 12660 5423 1 109.50000 418.400000
5422 12660 5423 1 109.50000 418.400000
2388 12661 5424 1 109.50000 418.400000
2388 12661 5425 1 109.50000 418.400000
2388 12661 5426 1 109.50000 418.400000
5424 12661 5425 1 109.50000 418.400000
5424 12661 5426 1 109.50000 418.400000
5425 12661 5426 1 109.50000 418.400000
5429 12662 5430 1 109.50000 418.400000
5429 12662 7418 1 109.50000 418.400000
5429 12662 9923 1 109.50000 418.400000
5430 12662 7418 1 109.50000 418.400000
5430 12662 9923 1 109.50000 418.400000
7418 12662 9923 1 109.50000 418.400000
3245 12663 5431 1 109.50000 418.400000
3245 12663 5432 1 109.50000 418.400000
3245 12663 5433 1 109.50000 418.400000
5431 12663 5432 1 109.50000 418.400000
5431 12663 5433 1 109.50000 418.400000
5432 12663 5433 1 109.50000 418.400000
3037 12664 5434 1 109.50000 418.400000
3037 12664 5435 1 109.50000 418.400000
3037 12664 5436 1 109.50000 418.400000
5434 12664 5435 1 109.50000 418.400000
5434 12664 5436 1 109.50000 418.400000
5435 12664 5436 1 109.50000 418.400000
5437 12665 5438 1 109.50000 418.400000
5437 12665 5439 1 109.50000 418.400000
5437 12665 9159 1 109.50000 418.400000
5438 12665 5439 1 109.50000 418.400000
5438 12665 9159 1 109.50000 418.400000
5439 12665 9159 1 109.50000 418.400000
1129 12666 5441 1 109.50000 418.400000
1129 12666 5442 1 109.50000 418.400000
1129 12666 5443 1 109.50000 418.400000
5441 12666 5442 1 109.50000 418.400000
5441 12666 5443 1 109.50000 418.400000
5442 12666 5443 1 109.50000 418.400000
348 12667 5444 1 109.50000 418.400000
348 12667 11161 1 109.50000 418.400000
348 12667 11182 1 109.50000 418.400000
5444 12667 11161 1 109.50000 418.400000
5444 12667 11182 1 109.50000 418.400000
11161 12667 11182 1 109.50000 418.400000
2527 12668 5446 1 109.50000 418.400000
2527 12668 5447 1 109.50000 418.400000
2527 12668 8593 1 109.50000 418.400000
5446 12668 5447 1 109.50000 418.400000
5446 12668 8593 1 109.50000 418.400000
5447 12668 8593 1 109.50000 418.400000
5318 12669 5448 1 109.50000 418.400000
5318 12669 5449 1 109.50000 418.400000
5318 12669 9465 1 109.50000 418.400000
5448 12669 5449 1 109.50000 418.400000
5448 12669 9465 1 109.50000 418.400000
5449 12669 9465 1 109.50000 418.400000
1720 12670 1721 1 109.50000 418.400000
1720 12670 1722 1 109.50000 418.400000
1720 12670 5450 1 109.50000 418.400000
1721 12670 1722 1 109.50000 418.400000
1721 12670 5450 1 109.50000 418.400000
1722 12670 5450 1 109.50000 418.400000
484 12671 5453 1 109.50000 418.400000
484 12671 5454 1 109.50000 418.400000
484 12671 5455 1 109.50000 418.400000
5453 12671 5454 1 109.50000 418.400000
5453 12671 5455 1 109.50000 418.400000
5454 12671 5455 1 109.50000 418.400000
5456 12672 5457 1 109.50000 418.400000
5456 12672 5458 1 109.50000 418.400000
5456 12672 5459 1 109.50000 418.400000
5457 12672 5458 1 109.50000 418.400000
5457 12672 5459 1 109.50000 418.400000
5458 12672 5459 1 109.50000 418.400000
5460 12673 5461 1 109.50000 418.400000
5460 12673 5462 1 109.50000 418.400000
5460 12673 5463 1 109.50000 418.400000
5461 12673 5462 1 109.50000 418.400000
5461 12673 5463 1 109.50000 418.400000
5462 12673 5463 1 109.50000 418.400000
246 12674 682 1 109.50000 418.400000
246 12674 3393 1 109.50000 418.400000
246 12674 3439 1 109.50000 418.400000
682 12674 3393 1 109.50000 418.400000
682 12674 3439 1 109.50000 418.400000
3393 12674 3439 1 109.50000 418.400000
4891 12675 5404 1 109.50000 418.400000
4891 12675 5465 1 109.50000 418.400000
4891 12675 5466 1 109.50000 418.400000
5404 12675 5465 1 109.50000 418.400000
5404 12675 5466 1 109.50000 418.400000
5465 12675 5466 1 109.50000 418.400000
2670 12676 4756 1 109.50000 418.400000
2670 12676 5470 1 109.50000 418.400000
2670 12676 5471 1 109.50000 418.400000
4756 12676 5470 1 109.50000 418.400000
4756 12676 5471 1 109.50000 418.400000
5470 12676 5471 1 109.50000 418.400000
542 12677 2211 1 109.50000 418.400000
542 12677 5474 1 109.50000 418.400000
542 12677 5475 1 109.50000 418.400000
2211 12677 5474 1 109.50000 418.400000
2211 12677 5475 1 109.50000 418.400000
5474 12677 5475 1 109.50000 418.400000
902 12678 903 1 109.50000 418.400000
902 12678 904 1 109.50000 418.400000
902 12678 905 1 109.50000 418.400000
903 12678 904 1 109.50000 418.400000
903 12678 905 1 109.50000 418.400000
904 12678 905 1 109.50000 418.400000
2356 12679 3115 1 109.50000 418.400000
2356 12679 5477 1 109.50000 418.400000
2356 12679 5478 1 109.50000 418.400000
3115 12679 5477 1 109.50000 418.400000
3115 12679 5478 1 109.50000 418.400000
5477 12679 5478 1 109.50000 418.400000
5479 12680 5480 1 109.50000 418.400000
5479 12680 5481 1 109.50000 418.400000
5479 12680 5482 1 109.50000 418.400000
5480 12680 5481 1 109.50000 418.400000
5480 12680 5482 1 109.50000 418.400000
5481 12680 5482 1 109.50000 418.400000
3743 12681 5483 1 109.50000 418.400000
3743 12681 5484 1 109.50000 418.400000
3743 12681 5485 1 109.50000 418.400000
5483 12681 5484 1 109.50000 418.400000
5483 12681 5485 1 109.50000 418.400000
5484 12681 5485 1 109.50000 418.400000
1791 12682 5488 1 109.50000 418.400000
1791 12682 5489 1 109.50000 418.400000
1791 12682 5490 1 109.50000 418.400000
5488 12682 5489 1 109.50000 418.400000
5488 12682 5490 1 109.50000 418.400000
5489 12682 5490 1 109.50000 418.400000
1779 12683 5491 1 109.50000 418.400000
1779 12683 5492 1 109.50000 418.400000
1779 12683 5493 1 109.50000 418.400000
5491 12683 5492 1 109.50000 418.400000
5491 12683 5493 1 109.50000 418.400000
5492 12683 5493 1 109.50000 418.400000
2236 12684 2625 1 109.50000 418.400000
2236 12684 5494 1 109.50000 418.400000
2236 12684 5495 1 109.50000 418.400000
2625 12684 5494 1 109.50000 418.400000
2625 12684 5495 1 109.50000 418.400000
5494 12684 5495 1 109.50000 418.400000
4459 12685 4750 1 109.50000 418.400000
4459 12685 5499 1 109.50000 418.400000
4459 12685 5500 1 109.50000 418.400000
4750 12685 5499 1 109.50000 418.400000
4750 12685 5500 1 109.50000 418.400000
5499 12685 5500 1 109.50000 418.400000
3448 12686 5504 1 109.50000 418.400000
3448 12686 5505 1 109.50000 418.400000
3448 12686 5506 1 109.50000 418.400000
5504 12686 5505 1 109.50000 418.400000
5504 12686 5506 1 109.50000 418.400000
5505 12686 5506 1 109.50000 418.400000
5357 12687 5507 1 109.50000 418.400000
5357 12687 5508 1 109.50000 418.400000
5357 12687 5509 1 109.50000 418.400000
5507 12687 5508 1 109.50000 418.400000
5507 12687 5509 1 109.50000 418.400000
5508 12687 5509 1 109.50000 418.400000
3575 12688 3876 1 109.50000 418.400000
3575 12688 5510 1 109.50000 418.400000
3575 12688 5511 1 109.50000 418.400000
3876 12688 5510 1 109.50000 418.400000
3876 12688 5511 1 109.50000 418.400000
5510 12688 5511 1 109.50000 418.400000
5512 12689 5513 1 109.50000 418.400000
5512 12689 5514 1 109.50000 418.400000
5512 12689 5515 1 109.50000 418.400000
5513 12689 5514 1 109.50000 418.400000
5513 12689 5515 1 109.50000 418.400000
5514 12689 5515 1 109.50000 418.400000
1677 12690 5517 1 109.50000 418.400000
1677 12690 5518 1 109.50000 418.400000
1677 12690 5519 1 109.50000 418.400000
5517 12690 5518 1 109.50000 418.400000
5517 12690 5519 1 109.50000 418.400000
5518 12690 5519 1 109.50000 418.400000
5156 12691 5520 1 109.50000 418.400000
5156 12691 5521 1 109.50000 418.400000
5156 12691 5522 1 109.50000 418.400000
5520 12691 5521 1 109.50000 418.400000
5520 12691 5522 1 109.50000 418.400000
5521 12691 5522 1 109.50000 418.400000
546 12692 3176 1 109.50000 418.400000
546 12692 5523 1 109.50000 418.400000
546 12692 5524 1 109.50000 418.400000
3176 12692 5523 1 109.50000 418.400000
3176 12692 5524 1 109.50000 418.400000
5523 12692 5524 1 109.50000 418.400000
1062 12693 1503 1 109.50000 418.400000
1062 12693 5439 1 109.50000 418.400000
1062 12693 5525 1 109.50000 418.400000
1503 12693 5439 1 109.50000 418.400000
1503 12693 5525 1 109.50000 418.400000
5439 12693 5525 1 109.50000 418.400000
5528 12694 5529 1 109.50000 418.400000
5528 12694 5530 1 109.50000 418.400000
5528 12694 5531 1 109.50000 418.400000
5529 12694 5530 1 109.50000 418.400000
5529 12694 5531 1 109.50000 418.400000
5530 12694 5531 1 109.50000 418.400000
4774 12695 5532 1 109.50000 418.400000
4774 12695 5533 1 109.50000 418.400000
4774 12695 5534 1 109.50000 418.400000
5532 12695 5533 1 109.50000 418.400000
5532 12695 5534 1 109.50000 418.400000
5533 12695 5534 1 109.50000 418.400000
2244 12696 2872 1 109.50000 418.400000
2244 12696 5535 1 109.50000 418.400000
2244 12696 5536 1 109.50000 418.400000
2872 12696 5535 1 109.50000 418.400000
2872 12696 5536 1 109.50000 418.400000
5535 12696 5536 1 109.50000 418.400000
2081 12697 5537 1 109.50000 418.400000
2081 12697 5538 1 109.50000 418.400000
2081 12697 5539 1 109.50000 418.400000
5537 12697 5538 1 109.50000 418.400000
5537 12697 5539 1 109.50000 418.400000
5538 12697 5539 1 109.50000 418.400000
1863 12698 2232 1 109.50000 418.400000
1863 12698 5542 1 109.50000 418.400000
1863 12698 5543 1 109.50000 418.400000
2232 12698 5542 1 109.50000 418.400000
2232 12698 5543 1 109.50000 418.400000
5542 12698 5543 1 109.50000 418.400000
5544 12699 5546 1 109.50000 418.400000
5544 12699 5547 1 109.50000 418.400000
5544 12699 7953 1 109.50000 418.400000
5546 12699 5547 1 109.50000 418.400000
5546 12699 7953 1 109.50000 418.400000
5547 12699 7953 1 109.50000 418.400000
3291 12700 3293 1 109.50000 418.400000
3291 12700 5548 1 109.50000 418.400000
3291 12700 5549 1 109.50000 418.400000
3293 12700 5548 1 109.50000 418.400000
3293 12700 5549 1 109.50000 418.400000
5548 12700 5549 1 109.50000 418.400000
5553 12701 5554 1 109.50000 418.400000
5553 12701 5555 1 109.50000 418.400000
5553 12701 5556 1 109.50000 418.400000
5554 12701 5555 1 109.50000 418.400000
5554 12701 5556 1 109.50000 418.400000
5555 12701 5556 1 109.50000 418.400000
1251 12702 5557 1 109.50000 418.400000
1251 12702 5558 1 109.50000 418.400000
1251 12702 5559 1 109.50000 418.400000
5557 12702 5558 1 109.50000 418.400000
5557 12702 5559 1 109.50000 418.400000
5558 12702 5559 1 109.50000 418.400000
2475 12703 3749 1 109.50000 418.400000
2475 12703 5560 1 109.50000 418.400000
2475 12703 5561 1 109.50000 418.400000
3749 12703 5560 1 109.50000 418.400000
3749 12703 5561 1 109.50000 418.400000
5560 12703 5561 1 109.50000 418.400000
2257 12704 5562 1 109.50000 418.400000
2257 12704 5563 1 109.50000 418.400000
2257 12704 5564 1 109.50000 418.400000
5562 12704 5563 1 109.50000 418.400000
5562 12704 5564 1 109.50000 418.400000
5563 12704 5564 1 109.50000 418.400000
3056 12705 5565 1 109.50000 418.400000
3056 12705 5566 1 109.50000 418.400000
3056 12705 5567 1 109.50000 418.400000
5565 12705 5566 1 109.50000 418.400000
5565 12705 5567 1 109.50000 418.400000
5566 12705 5567 1 109.50000 418.400000
1427 12706 5568 1 109.50000 418.400000
1427 12706 5569 1 109.50000 418.400000
1427 12706 5570 1 109.50000 418.400000
5568 12706 5569 1 109.50000 418.400000
5568 12706 5570 1 109.50000 418.400000
5569 12706 5570 1 109.50000 418.400000
2577 12707 3565 1 109.50000 418.400000
2577 12707 3648 1 109.50000 418.400000
2577 12707 5571 1 109.50000 418.400000
3565 12707 3648 1 109.50000 418.400000
3565 12707 5571 1 109.50000 418.400000
3648 12707 5571 1 109.50000 418.400000
3847 12708 5572 1 109.50000 418.400000
3847 12708 5573 1 109.50000 418.400000
3847 12708 11231 1 109.50000 418.400000
5572 12708 5573 1 109.50000 418.400000
5572 12708 11231 1 109.50000 418.400000
5573 12708 11231 1 109.50000 418.400000
1611 12709 5574 1 109.50000 418.400000
1611 12709 5575 1 109.50000 418.400000
1611 12709 5576 1 109.50000 418.400000
5574 12709 5575 1 109.50000 418.400000
5574 12709 5576 1 109.50000 418.400000
5575 12709 5576 1 109.50000 418.400000
4927 12710 5582 1 109.50000 418.400000
4927 12710 5583 1 109.50000 418.400000
4927 12710 5584 1 109.50000 418.400000
5582 12710 5583 1 109.50000 418.400000
5582 12710 5584 1 109.50000 418.400000
5583 12710 5584 1 109.50000 418.400000
3186 12711 4354 1 109.50000 418.400000
3186 12711 5585 1 109.50000 418.400000
3186 12711 5586 1 109.50000 418.400000
4354 12711 5585 1 109.50000 418.400000
4354 12711 5586 1 109.50000 418.400000
5585 12711 5586 1 109.50000 418.400000
5587 12712 5588 1 109.50000 418.400000
5587 12712 5589 1 109.50000 418.400000
5587 12712 5590 1 109.50000 418.400000
5588 12712 5589 1 109.50000 418.400000
5588 12712 5590 1 109.50000 418.400000
5589 12712 5590 1 109.50000 418.400000
4079 12713 5591 1 109.50000 418.400000
4079 12713 5592 1 109.50000 418.400000
4079 12713 5593 1 109.50000 418.400000
5591 12713 5592 1 109.50000 418.400000
5591 12713 5593 1 109.50000 418.400000
5592 12713 5593 1 109.50000 418.400000
5594 12714 5595 1 109.50000 418.400000
5594 12714 5596 1 109.50000 418.400000
5594 12714 5597 1 109.50000 418.400000
5595 12714 5596 1 109.50000 418.400000
5595 12714 5597 1 109.50000 418.400000
5596 12714 5597 1 109.50000 418.400000
1426 12715 5598 1 109.50000 418.400000
1426 12715 5599 1 109.50000 418.400000
1426 12715 5820 1 109.50000 418.400000
5598 12715 5599 1 109.50000 418.400000
5598 12715 5820 1 109.50000 418.400000
5599 12715 5820 1 109.50000 418.400000
2277 12716 5600 1 109.50000 418.400000
2277 12716 5601 1 109.50000 418.400000
2277 12716 7655 1 109.50000 418.400000
5600 12716 5601 1 109.50000 418.400000
5600 12716 7655 1 109.50000 418.400000
5601 12716 7655 1 109.50000 418.400000
248 12717 5602 1 109.50000 418.400000
248 12717 5603 1 109.50000 418.400000
248 12717 5604 1 109.50000 418.400000
5602 12717 5603 1 109.50000 418.400000
5602 12717 5604 1 109.50000 418.400000
5603 12717 5604 1 109.50000 418.400000
5605 12718 5606 1 109.50000 418.400000
5605 12718 5607 1 109.50000 418.400000
5605 12718 5608 1 109.50000 418.400000
5606 12718 5607 1 109.50000 418.400000
5606 12718 5608 1 109.50000 418.400000
5607 12718 5608 1 109.50000 418.400000
1514 12719 5609 1 109.50000 418.400000
1514 12719 5610 1 109.50000 418.400000
1514 12719 5611 1 109.50000 418.400000
5609 12719 5610 1 109.50000 418.400000
5609 12719 5611 1 109.50000 418.400000
5610 12719 5611 1 109.50000 418.400000
5063 12720 5612 1 109.50000 418.400000
5063 12720 5613 1 109.50000 418.400000
5063 12720 5614 1 109.50000 418.400000
5612 12720 5613 1 109.50000 418.400000
5612 12720 5614 1 109.50000 418.400000
5613 12720 5614 1 109.50000 418.400000
5570 12721 5615 1 109.50000 418.400000
5570 12721 5616 1 109.50000 418.400000
5570 12721 5617 1 109.50000 418.400000
5615 12721 5616 1 109.50000 418.400000
5615 12721 5617 1 109.50000 418.400000
5616 12721 5617 1 109.50000 418.400000
5618 12722 5619 1 109.50000 418.400000
5618 12722 5620 1 109.50000 418.400000
5618 12722 5621 1 109.50000 418.400000
5619 12722 5620 1 109.50000 418.400000
5619 12722 5621 1 109.50000 418.400000
5620 12722 5621 1 109.50000 418.400000
5622 12723 5623 1 109.50000 418.400000
5622 12723 5624 1 109.50000 418.400000
5622 12723 5625 1 109.50000 418.400000
5623 12723 5624 1 109.50000 418.400000
5623 12723 5625 1 109.50000 418.400000
5624 12723 5625 1 109.50000 418.400000
759 12724 3440 1 109.50000 418.400000
759 12724 3917 1 109.50000 418.400000
759 12724 5626 1 109.50000 418.400000
3440 12724 3917 1 109.50000 418.400000
3440 12724 5626 1 109.50000 418.400000
3917 12724 5626 1 109.50000 418.400000
1793 12725 3733 1 109.50000 418.400000
1793 12725 5627 1 109.50000 418.400000
1793 12725 5628 1 109.50000 418.400000
3733 12725 5627 1 109.50000 418.400000
3733 12725 5628 1 109.50000 418.400000
5627 12725 5628 1 109.50000 418.400000
1448 12726 4596 1 109.50000 418.400000
1448 12726 5629 1 109.50000 418.400000
1448 12726 8855 1 109.50000 418.400000
4596 12726 5629 1 109.50000 418.400000
4596 12726 8855 1 109.50000 418.400000
5629 12726 8855 1 109.50000 418.400000
5631 12727 5633 1 109.50000 418.400000
5631 12727 5634 1 109.50000 418.400000
5631 12727 7674 1 109.50000 418.400000
5633 12727 5634 1 109.50000 418.400000
5633 12727 7674 1 109.50000 418.400000
5634 12727 7674 1 109.50000 418.400000
5635 12728 5636 1 109.50000 418.400000
5635 12728 5637 1 109.50000 418.400000
5635 12728 5638 1 109.50000 418.400000
5636 12728 5637 1 109.50000 418.400000
5636 12728 5638 1 109.50000 418.400000
5637 12728 5638 1 109.50000 418.400000
4764 12729 5639 1 109.50000 418.400000
4764 12729 5640 1 109.50000 418.400000
4764 12729 5641 1 109.50000 418.400000
5639 12729 5640 1 109.50000 418.400000
5639 12729 5641 1 109.50000 418.400000
5640 12729 5641 1 109.50000 418.400000
5642 12730 5643 1 109.50000 418.400000
5642 12730 5644 1 109.50000 418.400000
5642 12730 5645 1 109.50000 418.400000
5643 12730 5644 1 109.50000 418.400000
5643 12730 5645 1 109.50000 418.400000
5644 12730 5645 1 109.50000 418.400000
2210 12731 5646 1 109.50000 418.400000
2210 12731 5647 1 109.50000 418.400000
2210 12731 5648 1 109.50000 418.400000
5646 12731 5647 1 109.50000 418.400000
5646 12731 5648 1 109.50000 418.400000
5647 12731 5648 1 109.50000 418.400000
5649 12732 5650 1 109.50000 418.400000
5649 12732 5651 1 109.50000 418.400000
5649 12732 5652 1 109.50000 418.400000
5650 12732 5651 1 109.50000 418.400000
5650 12732 5652 1 109.50000 418.400000
5651 12732 5652 1 109.50000 418.400000
1837 12733 3842 1 109.50000 418.400000
1837 12733 5654 1 109.50000 418.400000
1837 12733 5655 1 109.50000 418.400000
3842 12733 5654 1 109.50000 418.400000
3842 12733 5655 1 109.50000 418.400000
5654 12733 5655 1 109.50000 418.400000
5656 12734 5657 1 109.50000 418.400000
5656 12734 5658 1 109.50000 418.400000
5656 12734 5659 1 109.50000 418.400000
5657 12734 5658 1 109.50000 418.400000
5657 12734 5659 1 109.50000 418.400000
5658 12734 5659 1 109.50000 418.400000
4787 12735 5661 1 109.50000 418.400000
4787 12735 5662 1 109.50000 418.400000
4787 12735 5663 1 109.50000 418.400000
5661 12735 5662 1 109.50000 418.400000
5661 12735 5663 1 109.50000 418.400000
5662 12735 5663 1 109.50000 418.400000
1816 12736 5664 1 109.50000 418.400000
1816 12736 5665 1 109.50000 418.400000
1816 12736 5666 1 109.50000 418.400000
5664 12736 5665 1 109.50000 418.400000
5664 12736 5666 1 109.50000 418.400000
5665 12736 5666 1 109.50000 418.400000
3091 12737 5667 1 109.50000 418.400000
3091 12737 5668 1 109.50000 418.400000
3091 12737 5669 1 109.50000 418.400000
5667 12737 5668 1 109.50000 418.400000
5667 12737 5669 1 109.50000 418.400000
5668 12737 5669 1 109.50000 418.400000
5670 12738 5671 1 109.50000 418.400000
5670 12738 5672 1 109.50000 418.400000
5670 12738 5673 1 109.50000 418.400000
5671 12738 5672 1 109.50000 418.400000
5671 12738 5673 1 109.50000 418.400000
5672 12738 5673 1 109.50000 418.400000
5674 12739 5675 1 109.50000 418.400000
5674 12739 5676 1 109.50000 418.400000
5674 12739 5677 1 109.50000 418.400000
5675 12739 5676 1 109.50000 418.400000
5675 12739 5677 1 109.50000 418.400000
5676 12739 5677 1 109.50000 418.400000
3103 12740 5678 1 109.50000 418.400000
3103 12740 5679 1 109.50000 418.400000
3103 12740 5680 1 109.50000 418.400000
5678 12740 5679 1 109.50000 418.400000
5678 12740 5680 1 109.50000 418.400000
5679 12740 5680 1 109.50000 418.400000
2882 12741 3828 1 109.50000 418.400000
2882 12741 5681 1 109.50000 418.400000
2882 12741 5682 1 109.50000 418.400000
3828 12741 5681 1 109.50000 418.400000
3828 12741 5682 1 109.50000 418.400000
5681 12741 5682 1 109.50000 418.400000
483 12742 5683 1 109.50000 418.400000
483 12742 5684 1 109.50000 418.400000
483 12742 5685 1 109.50000 418.400000
5683 12742 5684 1 109.50000 418.400000
5683 12742 5685 1 109.50000 418.400000
5684 12742 5685 1 109.50000 418.400000
1903 12743 5686 1 109.50000 418.400000
1903 12743 5687 1 109.50000 418.400000
1903 12743 5688 1 109.50000 418.400000
5686 12743 5687 1 109.50000 418.400000
5686 12743 5688 1 109.50000 418.400000
5687 12743 5688 1 109.50000 418.400000
5205 12744 5521 1 109.50000 418.400000
5205 12744 5689 1 109.50000 418.400000
5205 12744 5690 1 109.50000 418.400000
5521 12744 5689 1 109.50000 418.400000
5521 12744 5690 1 109.50000 418.400000
5689 12744 5690 1 109.50000 418.400000
5396 12745 5691 1 109.50000 418.400000
5396 12745 5692 1 109.50000 418.400000
5396 12745 5693 1 109.50000 418.400000
5691 12745 5692 1 109.50000 418.400000
5691 12745 5693 1 109.50000 418.400000
5692 12745 5693 1 109.50000 418.400000
1928 12746 1931 1 109.50000 418.400000
1928 12746 2350 1 109.50000 418.400000
1928 12746 2352 1 109.50000 418.400000
1931 12746 2350 1 109.50000 418.400000
1931 12746 2352 1 109.50000 418.400000
2350 12746 2352 1 109.50000 418.400000
5696 12747 5697 1 109.50000 418.400000
5696 12747 5698 1 109.50000 418.400000
5696 12747 5699 1 109.50000 418.400000
5697 12747 5698 1 109.50000 418.400000
5697 12747 5699 1 109.50000 418.400000
5698 12747 5699 1 109.50000 418.400000
5317 12748 5700 1 109.50000 418.400000
5317 12748 5701 1 109.50000 418.400000
5317 12748 5702 1 109.50000 418.400000
5700 12748 5701 1 109.50000 418.400000
5700 12748 5702 1 109.50000 418.400000
5701 12748 5702 1 109.50000 418.400000
5214 12749 5703 1 109.50000 418.400000
5214 12749 5704 1 109.50000 418.400000
5214 12749 5705 1 109.50000 418.400000
5703 12749 5704 1 109.50000 418.400000
5703 12749 5705 1 109.50000 418.400000
5704 12749 5705 1 109.50000 418.400000
701 12750 5707 1 109.50000 418.400000
701 12750 5708 1 109.50000 418.400000
701 12750 5844 1 109.50000 418.400000
5707 12750 5708 1 109.50000 418.400000
5707 12750 5844 1 109.50000 418.400000
5708 12750 5844 1 109.50000 418.400000
3253 12751 4928 1 109.50000 418.400000
3253 12751 5709 1 109.50000 418.400000
3253 12751 5710 1 109.50000 418.400000
4928 12751 5709 1 109.50000 418.400000
4928 12751 5710 1 109.50000 418.400000
5709 12751 5710 1 109.50000 418.400000
1399 12752 1539 1 109.50000 418.400000
1399 12752 5711 1 109.50000 418.400000
1399 12752 5712 1 109.50000 418.400000
1539 12752 5711 1 109.50000 418.400000
1539 12752 5712 1 109.50000 418.400000
5711 12752 5712 1 109.50000 418.400000
5718 12753 5719 1 109.50000 418.400000
5718 12753 5720 1 109.50000 418.400000
5718 12753 5721 1 109.50000 418.400000
5719 12753 5720 1 109.50000 418.400000
5719 12753 5721 1 109.50000 418.400000
5720 12753 5721 1 109.50000 418.400000
2011 12754 5722 1 109.50000 418.400000
2011 12754 5723 1 109.50000 418.400000
2011 12754 5724 1 109.50000 418.400000
5722 12754 5723 1 109.50000 418.400000
5722 12754 5724 1 109.50000 418.400000
5723 12754 5724 1 109.50000 418.400000
3045 12755 5728 1 109.50000 418.400000
3045 12755 5729 1 109.50000 418.400000
3045 12755 5730 1 109.50000 418.400000
5728 12755 5729 1 109.50000 418.400000
5728 12755 5730 1 109.50000 418.400000
5729 12755 5730 1 109.50000 418.400000
269 12756 3175 1 109.50000 418.400000
269 12756 5731 1 109.50000 418.400000
269 12756 5732 1 109.50000 418.400000
3175 12756 5731 1 109.50000 418.400000
3175 12756 5732 1 109.50000 418.400000
5731 12756 5732 1 109.50000 418.400000
728 12757 2417 1 109.50000 418.400000
728 12757 5733 1 109.50000 418.400000
728 12757 5734 1 109.50000 418.400000
2417 12757 5733 1 109.50000 418.400000
2417 12757 5734 1 109.50000 418.400000
5733 12757 5734 1 109.50000 418.400000
1496 12758 4013 1 109.50000 418.400000
1496 12758 5735 1 109.50000 418.400000
1496 12758 5736 1 109.50000 418.400000
4013 12758 5735 1 109.50000 418.400000
4013 12758 5736 1 109.50000 418.400000
5735 12758 5736 1 109.50000 418.400000
5738 12759 5739 1 109.50000 418.400000
5738 12759 5740 1 109.50000 418.400000
5738 12759 5741 1 109.50000 418.400000
5739 12759 5740 1 109.50000 418.400000
5739 12759 5741 1 109.50000 418.400000
5740 12759 5741 1 109.50000 418.400000
5742 12760 5743 1 109.50000 418.400000
5742 12760 10471 1 109.50000 418.400000
5742 12760 10843 1 109.50000 418.400000
5743 12760 10471 1 109.50000 418.400000
5743 12760 10843 1 109.50000 418.400000
10471 12760 10843 1 109.50000 418.400000
98 12761 2069 1 109.50000 418.400000
98 12761 5745 1 109.50000 418.400000
98 12761 5746 1 109.50000 418.400000
2069 12761 5745 1 109.50000 418.400000
2069 12761 5746 1 109.50000 418.400000
5745 12761 5746 1 109.50000 418.400000
2114 12762 5384 1 109.50000 418.400000
2114 12762 5747 1 109.50000 418.400000
2114 12762 5748 1 109.50000 418.400000
5384 12762 5747 1 109.50000 418.400000
5384 12762 5748 1 109.50000 418.400000
5747 12762 5748 1 109.50000 418.400000
2251 12763 3619 1 109.50000 418.400000
2251 12763 5749 1 109.50000 418.400000
2251 12763 5750 1 109.50000 418.400000
3619 12763 5749 1 109.50000 418.400000
3619 12763 5750 1 109.50000 418.400000
5749 12763 5750 1 109.50000 418.400000
389 12764 5753 1 109.50000 418.400000
389 12764 5754 1 109.50000 418.400000
389 12764 5755 1 109.50000 418.400000
5753 12764 5754 1 109.50000 418.400000
5753 12764 5755 1 109.50000 418.400000
5754 12764 5755 1 109.50000 418.400000
3267 12765 5756 1 109.50000 418.400000
3267 12765 5757 1 109.50000 418.400000
3267 12765 5758 1 109.50000 418.400000
5756 12765 5757 1 109.50000 418.400000
5756 12765 5758 1 109.50000 418.400000
5757 12765 5758 1 109.50000 418.400000
3171 12766 5759 1 109.50000 418.400000
3171 12766 7528 1 109.50000 418.400000
3171 12766 9740 1 109.50000 418.400000
5759 12766 7528 1 109.50000 418.400000
5759 12766 9740 1 109.50000 418.400000
7528 12766 9740 1 109.50000 418.400000
5761 12767 5762 1 109.50000 418.400000
5761 12767 5763 1 109.50000 418.400000
5761 12767 10075 1 109.50000 418.400000
5762 12767 5763 1 109.50000 418.400000
5762 12767 10075 1 109.50000 418.400000
5763 12767 10075 1 109.50000 418.400000
1983 12768 3789 1 109.50000 418.400000
1983 12768 5765 1 109.50000 418.400000
1983 12768 5766 1 109.50000 418.400000
3789 12768 5765 1 109.50000 418.400000
3789 12768 5766 1 109.50000 418.400000
5765 12768 5766 1 109.50000 418.400000
5767 12769 5768 1 109.50000 418.400000
5767 12769 5769 1 109.50000 418.400000
5767 12769 5770 1 109.50000 418.400000
5768 12769 5769 1 109.50000 418.400000
5768 12769 5770 1 109.50000 418.400000
5769 12769 5770 1 109.50000 418.400000
923 12770 2932 1 109.50000 418.400000
923 12770 4429 1 109.50000 418.400000
923 12770 5771 1 109.50000 418.400000
2932 12770 4429 1 109.50000 418.400000
2932 12770 5771 1 109.50000 418.400000
4429 12770 5771 1 109.50000 418.400000
2802 12771 4638 1 109.50000 418.400000
2802 12771 5772 1 109.50000 418.400000
2802 12771 5773 1 109.50000 418.400000
4638 12771 5772 1 109.50000 418.400000
4638 12771 5773 1 109.50000 418.400000
5772 12771 5773 1 109.50000 418.400000
1747 12772 5777 1 109.50000 418.400000
1747 12772 5778 1 109.50000 418.400000
1747 12772 5779 1 109.50000 418.400000
5777 12772 5778 1 109.50000 418.400000
5777 12772 5779 1 109.50000 418.400000
5778 12772 5779 1 109.50000 418.400000
5677 12773 5780 1 109.50000 418.400000
5677 12773 5781 1 109.50000 418.400000
5677 12773 5782 1 109.50000 418.400000
5780 12773 5781 1 109.50000 418.400000
5780 12773 5782 1 109.50000 418.400000
5781 12773 5782 1 109.50000 418.400000
209 12774 5783 1 109.50000 418.400000
209 12774 5784 1 109.50000 418.400000
209 12774 5785 1 109.50000 418.400000
5783 12774 5784 1 109.50000 418.400000
5783 12774 5785 1 109.50000 418.400000
5784 12774 5785 1 109.50000 418.400000
3172 12775 3246 1 109.50000 418.400000
3172 12775 4829 1 109.50000 418.400000
3172 12775 5786 1 109.50000 418.400000
3246 12775 4829 1 109.50000 418.400000
3246 12775 5786 1 109.50000 418.400000
4829 12775 5786 1 109.50000 418.400000
5787 12776 5788 1 109.50000 418.400000
5787 12776 5789 1 109.50000 418.400000
5787 12776 5790 1 109.50000 418.400000
5788 12776 5789 1 109.50000 418.400000
5788 12776 5790 1 109.50000 418.400000
5789 12776 5790 1 109.50000 418.400000
4449 12777 5792 1 109.50000 418.400000
4449 12777 5793 1 109.50000 418.400000
4449 12777 7194 1 109.50000 418.400000
5792 12777 5793 1 109.50000 418.400000
5792 12777 7194 1 109.50000 418.400000
5793 12777 7194 1 109.50000 418.400000
5795 12778 5796 1 109.50000 418.400000
5795 12778 5797 1 109.50000 418.400000
5795 12778 8314 1 109.50000 418.400000
5796 12778 5797 1 109.50000 418.400000
5796 12778 8314 1 109.50000 418.400000
5797 12778 8314 1 109.50000 418.400000
5798 12779 5799 1 109.50000 418.400000
5798 12779 5800 1 109.50000 418.400000
5798 12779 5801 1 109.50000 418.400000
5799 12779 5800 1 109.50000 418.400000
5799 12779 5801 1 109.50000 418.400000
5800 12779 5801 1 109.50000 418.400000
193 12780 691 1 109.50000 418.400000
193 12780 2842 1 109.50000 418.400000
193 12780 5802 1 109.50000 418.400000
691 12780 2842 1 109.50000 418.400000
691 12780 5802 1 109.50000 418.400000
2842 12780 5802 1 109.50000 418.400000
2480 12781 5803 1 109.50000 418.400000
2480 12781 5804 1 109.50000 418.400000
2480 12781 5805 1 109.50000 418.400000
5803 12781 5804 1 109.50000 418.400000
5803 12781 5805 1 109.50000 418.400000
5804 12781 5805 1 109.50000 418.400000
5806 12782 5807 1 109.50000 418.400000
5806 12782 5808 1 109.50000 418.400000
5806 12782 5809 1 109.50000 418.400000
5807 12782 5808 1 109.50000 418.400000
5807 12782 5809 1 109.50000 418.400000
5808 12782 5809 1 109.50000 418.400000
3520 12783 3877 1 109.50000 418.400000
3520 12783 5810 1 109.50000 418.400000
3520 12783 5811 1 109.50000 418.400000
3877 12783 5810 1 109.50000 418.400000
3877 12783 5811 1 109.50000 418.400000
5810 12783 5811 1 109.50000 418.400000
3593 12784 5812 1 109.50000 418.400000
3593 12784 5813 1 109.50000 418.400000
3593 12784 5814 1 109.50000 418.400000
5812 12784 5813 1 109.50000 418.400000
5812 12784 5814 1 109.50000 418.400000
5813 12784 5814 1 109.50000 418.400000
4670 12785 5815 1 109.50000 418.400000
4670 12785 5816 1 109.50000 418.400000
4670 12785 5817 1 109.50000 418.400000
5815 12785 5816 1 109.50000 418.400000
5815 12785 5817 1 109.50000 418.400000
5816 12785 5817 1 109.50000 418.400000
1852 12786 3074 1 109.50000 418.400000
1852 12786 5818 1 109.50000 418.400000
1852 12786 5819 1 109.50000 418.400000
3074 12786 5818 1 109.50000 418.400000
3074 12786 5819 1 109.50000 418.400000
5818 12786 5819 1 109.50000 418.400000
535 12787 4291 1 109.50000 418.400000
535 12787 5599 1 109.50000 418.400000
535 12787 5821 1 109.50000 418.400000
4291 12787 5599 1 109.50000 418.400000
4291 12787 5821 1 109.50000 418.400000
5599 12787 5821 1 109.50000 418.400000
2793 12788 3802 1 109.50000 418.400000
2793 12788 5822 1 109.50000 418.400000
2793 12788 5823 1 109.50000 418.400000
3802 12788 5822 1 109.50000 418.400000
3802 12788 5823 1 109.50000 418.400000
5822 12788 5823 1 109.50000 418.400000
5825 12789 5826 1 109.50000 418.400000
5825 12789 5827 1 109.50000 418.400000
5825 12789 9839 1 109.50000 418.400000
5826 12789 5827 1 109.50000 418.400000
5826 12789 9839 1 109.50000 418.400000
5827 12789 9839 1 109.50000 418.400000
1910 12790 2840 1 109.50000 418.400000
1910 12790 5777 1 109.50000 418.400000
1910 12790 5831 1 109.50000 418.400000
2840 12790 5777 1 109.50000 418.400000
2840 12790 5831 1 109.50000 418.400000
5777 12790 5831 1 109.50000 418.400000
5832 12791 5833 1 109.50000 418.400000
5832 12791 5834 1 109.50000 418.400000
5832 12791 11205 1 109.50000 418.400000
5833 12791 5834 1 109.50000 418.400000
5833 12791 11205 1 109.50000 418.400000
5834 12791 11205 1 109.50000 418.400000
5835 12792 5836 1 109.50000 418.400000
5835 12792 6820 1 109.50000 418.400000
5835 12792 9421 1 109.50000 418.400000
5836 12792 6820 1 109.50000 418.400000
5836 12792 9421 1 109.50000 418.400000
6820 12792 9421 1 109.50000 418.400000
4368 12793 5706 1 109.50000 418.400000
4368 12793 5708 1 109.50000 418.400000
4368 12793 5843 1 109.50000 418.400000
5706 12793 5708 1 109.50000 418.400000
5706 12793 5843 1 109.50000 418.400000
5708 12793 5843 1 109.50000 418.400000
4107 12794 4108 1 109.50000 418.400000
4107 12794 5845 1 109.50000 418.400000
4107 12794 5846 1 109.50000 418.400000
4108 12794 5845 1 109.50000 418.400000
4108 12794 5846 1 109.50000 418.400000
5845 12794 5846 1 109.50000 418.400000
5637 12795 5847 1 109.50000 418.400000
5637 12795 5848 1 109.50000 418.400000
5637 12795 5849 1 109.50000 418.400000
5847 12795 5848 1 109.50000 418.400000
5847 12795 5849 1 109.50000 418.400000
5848 12795 5849 1 109.50000 418.400000
410 12796 5850 1 109.50000 418.400000
410 12796 5851 1 109.50000 418.400000
410 12796 5852 1 109.50000 418.400000
5850 12796 5851 1 109.50000 418.400000
5850 12796 5852 1 109.50000 418.400000
5851 12796 5852 1 109.50000 418.400000
2611 12797 3586 1 109.50000 418.400000
2611 12797 5346 1 109.50000 418.400000
2611 12797 5853 1 109.50000 418.400000
3586 12797 5346 1 109.50000 418.400000
3586 12797 5853 1 109.50000 418.400000
5346 12797 5853 1 109.50000 418.400000
5854 12798 5855 1 109.50000 418.400000
5854 12798 5856 1 109.50000 418.400000
5854 12798 5857 1 109.50000 418.400000
5855 12798 5856 1 109.50000 418.400000
5855 12798 5857 1 109.50000 418.400000
5856 12798 5857 1 109.50000 418.400000
3444 12799 5062 1 109.50000 418.400000
3444 12799 5858 1 109.50000 418.400000
3444 12799 5859 1 109.50000 418.400000
5062 12799 5858 1 109.50000 418.400000
5062 12799 5859 1 109.50000 418.400000
5858 12799 5859 1 109.50000 418.400000
4834 12800 5862 1 109.50000 418.400000
4834 12800 5864 1 109.50000 418.400000
4834 12800 10290 1 109.50000 418.400000
5862 12800 5864 1 109.50000 418.400000
5862 12800 10290 1 109.50000 418.400000
5864 12800 10290 1 109.50000 418.400000
5865 12801 5866 1 109.50000 418.400000
5865 12801 5867 1 109.50000 418.400000
5865 12801 8664 1 109.50000 418.400000
5866 12801 5867 1 109.50000 418.400000
5866 12801 8664 1 109.50000 418.400000
5867 12801 8664 1 109.50000 418.400000
3851 12802 5283 1 109.50000 418.400000
3851 12802 5868 1 109.50000 418.400000
3851 12802 5869 1 109.50000 418.400000
5283 12802 5868 1 109.50000 418.400000
5283 12802 5869 1 109.50000 418.400000
5868 12802 5869 1 109.50000 418.400000
3005 12803 5870 1 109.50000 418.400000
3005 12803 5871 1 109.50000 418.400000
3005 12803 5872 1 109.50000 418.400000
5870 12803 5871 1 109.50000 418.400000
5870 12803 5872 1 109.50000 418.400000
5871 12803 5872 1 109.50000 418.400000
468 12804 5873 1 109.50000 418.400000
468 12804 5874 1 109.50000 418.400000
468 12804 5875 1 109.50000 418.400000
5873 12804 5874 1 109.50000 418.400000
5873 12804 5875 1 109.50000 418.400000
5874 12804 5875 1 109.50000 418.400000
5876 12805 5877 1 109.50000 418.400000
5876 12805 5878 1 109.50000 418.400000
5876 12805 5879 1 109.50000 418.400000
5877 12805 5878 1 109.50000 418.400000
5877 12805 5879 1 109.50000 418.400000
5878 12805 5879 1 109.50000 418.400000
5880 12806 5881 1 109.50000 418.400000
5880 12806 5882 1 109.50000 418.400000
5880 12806 5883 1 109.50000 418.400000
5881 12806 5882 1 109.50000 418.400000
5881 12806 5883 1 109.50000 418.400000
5882 12806 5883 1 109.50000 418.400000
3153 12807 5884 1 109.50000 418.400000
3153 12807 5885 1 109.50000 418.400000
3153 12807 5886 1 109.50000 418.400000
5884 12807 5885 1 109.50000 418.400000
5884 12807 5886 1 109.50000 418.400000
5885 12807 5886 1 109.50000 418.400000
1761 12808 5217 1 109.50000 418.400000
1761 12808 5887 1 109.50000 418.400000
1761 12808 5888 1 109.50000 418.400000
5217 12808 5887 1 109.50000 418.400000
5217 12808 5888 1 109.50000 418.400000
5887 12808 5888 1 109.50000 418.400000
4806 12809 5889 1 109.50000 418.400000
4806 12809 5890 1 109.50000 418.400000
4806 12809 5891 1 109.50000 418.400000
5889 12809 5890 1 109.50000 418.400000
5889 12809 5891 1 109.50000 418.400000
5890 12809 5891 1 109.50000 418.400000
1884 12810 5895 1 109.50000 418.400000
1884 12810 5896 1 109.50000 418.400000
1884 12810 5897 1 109.50000 418.400000
5895 12810 5896 1 109.50000 418.400000
5895 12810 5897 1 109.50000 418.400000
5896 12810 5897 1 109.50000 418.400000
1581 12811 5898 1 109.50000 418.400000
1581 12811 5899 1 109.50000 418.400000
1581 12811 5900 1 109.50000 418.400000
5898 12811 5899 1 109.50000 418.400000
5898 12811 5900 1 109.50000 418.400000
5899 12811 5900 1 109.50000 418.400000
3051 12812 5901 1 109.50000 418.400000
3051 12812 5902 1 109.50000 418.400000
3051 12812 5903 1 109.50000 418.400000
5901 12812 5902 1 109.50000 418.400000
5901 12812 5903 1 109.50000 418.400000
5902 12812 5903 1 109.50000 418.400000
5904 12813 5905 1 109.50000 418.400000
5904 12813 5906 1 109.50000 418.400000
5904 12813 5907 1 109.50000 418.400000
5905 12813 5906 1 109.50000 418.400000
5905 12813 5907 1 109.50000 418.400000
5906 12813 5907 1 109.50000 418.400000
3216 12814 5908 1 109.50000 418.400000
3216 12814 5909 1 109.50000 418.400000
3216 12814 5910 1 109.50000 418.400000
5908 12814 5909 1 109.50000 418.400000
5908 12814 5910 1 109.50000 418.400000
5909 12814 5910 1 109.50000 418.400000
3233 12815 5911 1 109.50000 418.400000
3233 12815 5912 1 109.50000 418.400000
3233 12815 5913 1 109.50000 418.400000
5911 12815 5912 1 109.50000 418.400000
5911 12815 5913 1 109.50000 418.400000
5912 12815 5913 1 109.50000 418.400000
1705 12816 5914 1 109.50000 418.400000
1705 12816 5915 1 109.50000 418.400000
1705 12816 5916 1 109.50000 418.400000
5914 12816 5915 1 109.50000 418.400000
5914 12816 5916 1 109.50000 418.400000
5915 12816 5916 1 109.50000 418.400000
1959 12817 3363 1 109.50000 418.400000
1959 12817 5917 1 109.50000 418.400000
1959 12817 5918 1 109.50000 418.400000
3363 12817 5917 1 109.50000 418.400000
3363 12817 5918 1 109.50000 418.400000
5917 12817 5918 1 109.50000 418.400000
2749 12818 5920 1 109.50000 418.400000
2749 12818 5921 1 109.50000 418.400000
2749 12818 5922 1 109.50000 418.400000
5920 12818 5921 1 109.50000 418.400000
5920 12818 5922 1 109.50000 418.400000
5921 12818 5922 1 109.50000 418.400000
762 12819 5923 1 109.50000 418.400000
762 12819 5924 1 109.50000 418.400000
762 12819 5925 1 109.50000 418.400000
5923 12819 5924 1 109.50000 418.400000
5923 12819 5925 1 109.50000 418.400000
5924 12819 5925 1 109.50000 418.400000
1862 12820 3414 1 109.50000 418.400000
1862 12820 3415 1 109.50000 418.400000
1862 12820 5926 1 109.50000 418.400000
3414 12820 3415 1 109.50000 418.400000
3414 12820 5926 1 109.50000 418.400000
3415 12820 5926 1 109.50000 418.400000
4457 12821 5469 1 109.50000 418.400000
4457 12821 5928 1 109.50000 418.400000
4457 12821 5929 1 109.50000 418.400000
5469 12821 5928 1 109.50000 418.400000
5469 12821 5929 1 109.50000 418.400000
5928 12821 5929 1 109.50000 418.400000
5930 12822 5931 1 109.50000 418.400000
5930 12822 5932 1 109.50000 418.400000
5930 12822 5933 1 109.50000 418.400000
5931 12822 5932 1 109.50000 418.400000
5931 12822 5933 1 109.50000 418.400000
5932 12822 5933 1 109.50000 418.400000
2263 12823 3255 1 109.50000 418.400000
2263 12823 5395 1 109.50000 418.400000
2263 12823 5934 1 109.50000 418.400000
3255 12823 5395 1 109.50000 418.400000
3255 12823 5934 1 109.50000 418.400000
5395 12823 5934 1 109.50000 418.400000
1189 12824 1192 1 109.50000 418.400000
1189 12824 5935 1 109.50000 418.400000
1189 12824 5936 1 109.50000 418.400000
1192 12824 5935 1 109.50000 418.400000
1192 12824 5936 1 109.50000 418.400000
5935 12824 5936 1 109.50000 418.400000
4312 12825 4492 1 109.50000 418.400000
4312 12825 5937 1 109.50000 418.400000
4312 12825 5938 1 109.50000 418.400000
4492 12825 5937 1 109.50000 418.400000
4492 12825 5938 1 109.50000 418.400000
5937 12825 5938 1 109.50000 418.400000
5939 12826 5940 1 109.50000 418.400000
5939 12826 5941 1 109.50000 418.400000
5939 12826 5942 1 109.50000 418.400000
5940 12826 5941 1 109.50000 418.400000
5940 12826 5942 1 109.50000 418.400000
5941 12826 5942 1 109.50000 418.400000
5743 12827 5945 1 109.50000 418.400000
5743 12827 9887 1 109.50000 418.400000
5743 12827 9889 1 109.50000 418.400000
5945 12827 9887 1 109.50000 418.400000
5945 12827 9889 1 109.50000 418.400000
9887 12827 9889 1 109.50000 418.400000
2385 12828 5946 1 109.50000 418.400000
2385 12828 5947 1 109.50000 418.400000
2385 12828 5948 1 109.50000 418.400000
5946 12828 5947 1 109.50000 418.400000
5946 12828 5948 1 109.50000 418.400000
5947 12828 5948 1 109.50000 418.400000
5949 12829 5950 1 109.50000 418.400000
5949 12829 5951 1 109.50000 418.400000
5949 12829 5952 1 109.50000 418.400000
5950 12829 5951 1 109.50000 418.400000
5950 12829 5952 1 109.50000 418.400000
5951 12829 5952 1 109.50000 418.400000
5953 12830 5954 1 109.50000 418.400000
5953 12830 5955 1 109.50000 418.400000
5953 12830 5956 1 109.50000 418.400000
5954 12830 5955 1 109.50000 418.400000
5954 12830 5956 1 109.50000 418.400000
5955 12830 5956 1 109.50000 418.400000
5957 12831 5958 1 109.50000 418.400000
5957 12831 5959 1 109.50000 418.400000
5957 12831 5960 1 109.50000 418.400000
5958 12831 5959 1 109.50000 418.400000
5958 12831 5960 1 109.50000 418.400000
5959 12831 5960 1 109.50000 418.400000
800 12832 4888 1 109.50000 418.400000
800 12832 5961 1 109.50000 418.400000
800 12832 5962 1 109.50000 418.400000
4888 12832 5961 1 109.50000 418.400000
4888 12832 5962 1 109.50000 418.400000
5961 12832 5962 1 109.50000 418.400000
2420 12833 5964 1 109.50000 418.400000
2420 12833 5965 1 109.50000 418.400000
2420 12833 11204 1 109.50000 418.400000
5964 12833 5965 1 109.50000 418.400000
5964 12833 11204 1 109.50000 418.400000
5965 12833 11204 1 109.50000 418.400000
1820 12834 1955 1 109.50000 418.400000
1820 12834 5966 1 109.50000 418.400000
1820 12834 5967 1 109.50000 418.400000
1955 12834 5966 1 109.50000 418.400000
1955 12834 5967 1 109.50000 418.400000
5966 12834 5967 1 109.50000 418.400000
1881 12835 2586 1 109.50000 418.400000
1881 12835 5968 1 109.50000 418.400000
1881 12835 5969 1 109.50000 418.400000
2586 12835 5968 1 109.50000 418.400000
2586 12835 5969 1 109.50000 418.400000
5968 12835 5969 1 109.50000 418.400000
5018 12836 5970 1 109.50000 418.400000
5018 12836 5971 1 109.50000 418.400000
5018 12836 5972 1 109.50000 418.400000
5970 12836 5971 1 109.50000 418.400000
5970 12836 5972 1 109.50000 418.400000
5971 12836 5972 1 109.50000 418.400000
1624 12837 5976 1 109.50000 418.400000
1624 12837 5977 1 109.50000 418.400000
1624 12837 7670 1 109.50000 418.400000
5976 12837 5977 1 109.50000 418.400000
5976 12837 7670 1 109.50000 418.400000
5977 12837 7670 1 109.50000 418.400000
2012 12838 3940 1 109.50000 418.400000
2012 12838 5982 1 109.50000 418.400000
2012 12838 5983 1 109.50000 418.400000
3940 12838 5982 1 109.50000 418.400000
3940 12838 5983 1 109.50000 418.400000
5982 12838 5983 1 109.50000 418.400000
5814 12839 5984 1 109.50000 418.400000
5814 12839 5985 1 109.50000 418.400000
5814 12839 5986 1 109.50000 418.400000
5984 12839 5985 1 109.50000 418.400000
5984 12839 5986 1 109.50000 418.400000
5985 12839 5986 1 109.50000 418.400000
3747 12840 4947 1 109.50000 418.400000
3747 12840 5987 1 109.50000 418.400000
3747 12840 5988 1 109.50000 418.400000
4947 12840 5987 1 109.50000 418.400000
4947 12840 5988 1 109.50000 418.400000
5987 12840 5988 1 109.50000 418.400000
3872 12841 4464 1 109.50000 418.400000
3872 12841 5989 1 109.50000 418.400000
3872 12841 5990 1 109.50000 418.400000
4464 12841 5989 1 109.50000 418.400000
4464 12841 5990 1 109.50000 418.400000
5989 12841 5990 1 109.50000 418.400000
5993 12842 5994 1 109.50000 418.400000
5993 12842 5995 1 109.50000 418.400000
5993 12842 5996 1 109.50000 418.400000
5994 12842 5995 1 109.50000 418.400000
5994 12842 5996 1 109.50000 418.400000
5995 12842 5996 1 109.50000 418.400000
555 12843 1228 1 109.50000 418.400000
555 12843 4653 1 109.50000 418.400000
555 12843 5999 1 109.50000 418.400000
1228 12843 4653 1 109.50000 418.400000
1228 12843 5999 1 109.50000 418.400000
4653 12843 5999 1 109.50000 418.400000
2207 12844 6002 1 109.50000 418.400000
2207 12844 6003 1 109.50000 418.400000
2207 12844 6004 1 109.50000 418.400000
6002 12844 6003 1 109.50000 418.400000
6002 12844 6004 1 109.50000 418.400000
6003 12844 6004 1 109.50000 418.400000
6007 12845 6008 1 109.50000 418.400000
6007 12845 6009 1 109.50000 418.400000
6007 12845 6010 1 109.50000 418.400000
6008 12845 6009 1 109.50000 418.400000
6008 12845 6010 1 109.50000 418.400000
6009 12845 6010 1 109.50000 418.400000
406 12846 2903 1 109.50000 418.400000
406 12846 6011 1 109.50000 418.400000
406 12846 6012 1 109.50000 418.400000
2903 12846 6011 1 109.50000 418.400000
2903 12846 6012 1 109.50000 418.400000
6011 12846 6012 1 109.50000 418.400000
222 12847 6013 1 109.50000 418.400000
222 12847 6014 1 109.50000 418.400000
222 12847 6015 1 109.50000 418.400000
6013 12847 6014 1 109.50000 418.400000
6013 12847 6015 1 109.50000 418.400000
6014 12847 6015 1 109.50000 418.400000
6016 12848 6017 1 109.50000 418.400000
6016 12848 6018 1 109.50000 418.400000
6016 12848 6019 1 109.50000 418.400000
6017 12848 6018 1 109.50000 418.400000
6017 12848 6019 1 109.50000 418.400000
6018 12848 6019 1 109.50000 418.400000
1160 12849 1162 1 109.50000 418.400000
1160 12849 1163 1 109.50000 418.400000
1160 12849 5112 1 109.50000 418.400000
1162 12849 1163 1 109.50000 418.400000
1162 12849 5112 1 109.50000 418.400000
1163 12849 5112 1 109.50000 418.400000
6022 12850 6023 1 109.50000 418.400000
6022 12850 6024 1 109.50000 418.400000
6022 12850 6025 1 109.50000 418.400000
6023 12850 6024 1 109.50000 418.400000
6023 12850 6025 1 109.50000 418.400000
6024 12850 6025 1 109.50000 418.400000
4590 12851 6028 1 109.50000 418.400000
4590 12851 6029 1 109.50000 418.400000
4590 12851 6030 1 109.50000 418.400000
6028 12851 6029 1 109.50000 418.400000
6028 12851 6030 1 109.50000 418.400000
6029 12851 6030 1 109.50000 418.400000
1584 12852 4663 1 109.50000 418.400000
1584 12852 6033 1 109.50000 418.400000
1584 12852 6034 1 109.50000 418.400000
4663 12852 6033 1 109.50000 418.400000
4663 12852 6034 1 109.50000 418.400000
6033 12852 6034 1 109.50000 418.400000
761 12853 6035 1 109.50000 418.400000
761 12853 6036 1 109.50000 418.400000
761 12853 6037 1 109.50000 418.400000
6035 12853 6036 1 109.50000 418.400000
6035 12853 6037 1 109.50000 418.400000
6036 12853 6037 1 109.50000 418.400000
6039 12854 6040 1 109.50000 418.400000
6039 12854 6041 1 109.50000 418.400000
6039 12854 6042 1 109.50000 418.400000
6040 12854 6041 1 109.50000 418.400000
6040 12854 6042 1 109.50000 418.400000
6041 12854 6042 1 109.50000 418.400000
6043 12855 6044 1 109.50000 418.400000
6043 12855 6045 1 109.50000 418.400000
6043 12855 6046 1 109.50000 418.400000
6044 12855 6045 1 109.50000 418.400000
6044 12855 6046 1 109.50000 418.400000
6045 12855 6046 1 109.50000 418.400000
2394 12856 6047 1 109.50000 418.400000
2394 12856 6048 1 109.50000 418.400000
2394 12856 6049 1 109.50000 418.400000
6047 12856 6048 1 109.50000 418.400000
6047 12856 6049 1 109.50000 418.400000
6048 12856 6049 1 109.50000 418.400000
2145 12857 4687 1 109.50000 418.400000
2145 12857 4715 1 109.50000 418.400000
2145 12857 6050 1 109.50000 418.400000
4687 12857 4715 1 109.50000 418.400000
4687 12857 6050 1 109.50000 418.400000
4715 12857 6050 1 109.50000 418.400000
287 12858 6052 1 109.50000 418.400000
287 12858 6053 1 109.50000 418.400000
287 12858 6054 1 109.50000 418.400000
6052 12858 6053 1 109.50000 418.400000
6052 12858 6054 1 109.50000 418.400000
6053 12858 6054 1 109.50000 418.400000
6055 12859 6056 1 109.50000 418.400000
6055 12859 6057 1 109.50000 418.400000
6055 12859 10055 1 109.50000 418.400000
6056 12859 6057 1 109.50000 418.400000
6056 12859 10055 1 109.50000 418.400000
6057 12859 10055 1 109.50000 418.400000
1088 12860 6058 1 109.50000 418.400000
1088 12860 6059 1 109.50000 418.400000
1088 12860 6060 1 109.50000 418.400000
6058 12860 6059 1 109.50000 418.400000
6058 12860 6060 1 109.50000 418.400000
6059 12860 6060 1 109.50000 418.400000
2979 12861 3790 1 109.50000 418.400000
2979 12861 4466 1 109.50000 418.400000
2979 12861 6061 1 109.50000 418.400000
3790 12861 4466 1 109.50000 418.400000
3790 12861 6061 1 109.50000 418.400000
4466 12861 6061 1 109.50000 418.400000
2141 12862 6062 1 109.50000 418.400000
2141 12862 6063 1 109.50000 418.400000
2141 12862 6064 1 109.50000 418.400000
6062 12862 6063 1 109.50000 418.400000
6062 12862 6064 1 109.50000 418.400000
6063 12862 6064 1 109.50000 418.400000
4627 12863 6065 1 109.50000 418.400000
4627 12863 6066 1 109.50000 418.400000
4627 12863 6067 1 109.50000 418.400000
6065 12863 6066 1 109.50000 418.400000
6065 12863 6067 1 109.50000 418.400000
6066 12863 6067 1 109.50000 418.400000
213 12864 214 1 109.50000 418.400000
213 12864 6068 1 109.50000 418.400000
213 12864 6069 1 109.50000 418.400000
214 12864 6068 1 109.50000 418.400000
214 12864 6069 1 109.50000 418.400000
6068 12864 6069 1 109.50000 418.400000
6070 12865 6071 1 109.50000 418.400000
6070 12865 6072 1 109.50000 418.400000
6070 12865 6073 1 109.50000 418.400000
6071 12865 6072 1 109.50000 418.400000
6071 12865 6073 1 109.50000 418.400000
6072 12865 6073 1 109.50000 418.400000
2000 12866 2631 1 109.50000 418.400000
2000 12866 6074 1 109.50000 418.400000
2000 12866 6075 1 109.50000 418.400000
2631 12866 6074 1 109.50000 418.400000
2631 12866 6075 1 109.50000 418.400000
6074 12866 6075 1 109.50000 418.400000
284 12867 6076 1 109.50000 418.400000
284 12867 6077 1 109.50000 418.400000
284 12867 6078 1 109.50000 418.400000
6076 12867 6077 1 109.50000 418.400000
6076 12867 6078 1 109.50000 418.400000
6077 12867 6078 1 109.50000 418.400000
5595 12868 6081 1 109.50000 418.400000
5595 12868 6082 1 109.50000 418.400000
5595 12868 6083 1 109.50000 418.400000
6081 12868 6082 1 109.50000 418.400000
6081 12868 6083 1 109.50000 418.400000
6082 12868 6083 1 109.50000 418.400000
6084 12869 6085 1 109.50000 418.400000
6084 12869 6086 1 109.50000 418.400000
6084 12869 6087 1 109.50000 418.400000
6085 12869 6086 1 109.50000 418.400000
6085 12869 6087 1 109.50000 418.400000
6086 12869 6087 1 109.50000 418.400000
6090 12870 6091 1 109.50000 418.400000
6090 12870 6092 1 109.50000 418.400000
6090 12870 6093 1 109.50000 418.400000
6091 12870 6092 1 109.50000 418.400000
6091 12870 6093 1 109.50000 418.400000
6092 12870 6093 1 109.50000 418.400000
1100 12871 6094 1 109.50000 418.400000
1100 12871 6095 1 109.50000 418.400000
1100 12871 6096 1 109.50000 418.400000
6094 12871 6095 1 109.50000 418.400000
6094 12871 6096 1 109.50000 418.400000
6095 12871 6096 1 109.50000 418.400000
2090 12872 3389 1 109.50000 418.400000
2090 12872 6097 1 109.50000 418.400000
2090 12872 6098 1 109.50000 418.400000
3389 12872 6097 1 109.50000 418.400000
3389 12872 6098 1 109.50000 418.400000
6097 12872 6098 1 109.50000 418.400000
4941 12873 6004 1 109.50000 418.400000
4941 12873 6102 1 109.50000 418.400000
4941 12873 6103 1 109.50000 418.400000
6004 12873 6102 1 109.50000 418.400000
6004 12873 6103 1 109.50000 418.400000
6102 12873 6103 1 109.50000 418.400000
6104 12874 6105 1 109.50000 418.400000
6104 12874 6106 1 109.50000 418.400000
6104 12874 6107 1 109.50000 418.400000
6105 12874 6106 1 109.50000 418.400000
6105 12874 6107 1 109.50000 418.400000
6106 12874 6107 1 109.50000 418.400000
4845 12875 6111 1 109.50000 418.400000
4845 12875 6113 1 109.50000 418.400000
4845 12875 10052 1 109.50000 418.400000
6111 12875 6113 1 109.50000 418.400000
6111 12875 10052 1 109.50000 418.400000
6113 12875 10052 1 109.50000 418.400000
2212 12876 3708 1 109.50000 418.400000
2212 12876 3709 1 109.50000 418.400000
2212 12876 6115 1 109.50000 418.400000
3708 12876 3709 1 109.50000 418.400000
3708 12876 6115 1 109.50000 418.400000
3709 12876 6115 1 109.50000 418.400000
4349 12877 6116 1 109.50000 418.400000
4349 12877 6117 1 109.50000 418.400000
4349 12877 11193 1 109.50000 418.400000
6116 12877 6117 1 109.50000 418.400000
6116 12877 11193 1 109.50000 418.400000
6117 12877 11193 1 109.50000 418.400000
2809 12878 4094 1 109.50000 418.400000
2809 12878 4253 1 109.50000 418.400000
2809 12878 6118 1 109.50000 418.400000
4094 12878 4253 1 109.50000 418.400000
4094 12878 6118 1 109.50000 418.400000
4253 12878 6118 1 109.50000 418.400000
307 12879 6119 1 109.50000 418.400000
307 12879 6120 1 109.50000 418.400000
307 12879 6121 1 109.50000 418.400000
6119 12879 6120 1 109.50000 418.400000
6119 12879 6121 1 109.50000 418.400000
6120 12879 6121 1 109.50000 418.400000
6124 12880 6125 1 109.50000 418.400000
6124 12880 6126 1 109.50000 418.400000
6124 12880 6127 1 109.50000 418.400000
6125 12880 6126 1 109.50000 418.400000
6125 12880 6127 1 109.50000 418.400000
6126 12880 6127 1 109.50000 418.400000
2358 12881 3142 1 109.50000 418.400000
2358 12881 3265 1 109.50000 418.400000
2358 12881 6128 1 109.50000 418.400000
3142 12881 3265 1 109.50000 418.400000
3142 12881 6128 1 109.50000 418.400000
3265 12881 6128 1 109.50000 418.400000
1038 12882 6129 1 109.50000 418.400000
1038 12882 6130 1 109.50000 418.400000
1038 12882 6131 1 109.50000 418.400000
6129 12882 6130 1 109.50000 418.400000
6129 12882 6131 1 109.50000 418.400000
6130 12882 6131 1 109.50000 418.400000
6132 12883 6133 1 109.50000 418.400000
6132 12883 6134 1 109.50000 418.400000
6132 12883 7283 1 109.50000 418.400000
6133 12883 6134 1 109.50000 418.400000
6133 12883 7283 1 109.50000 418.400000
6134 12883 7283 1 109.50000 418.400000
2147 12884 3328 1 109.50000 418.400000
2147 12884 6132 1 109.50000 418.400000
2147 12884 6136 1 109.50000 418.400000
3328 12884 6132 1 109.50000 418.400000
3328 12884 6136 1 109.50000 418.400000
6132 12884 6136 1 109.50000 418.400000
6137 12885 6138 1 109.50000 418.400000
6137 12885 6139 1 109.50000 418.400000
6137 12885 6140 1 109.50000 418.400000
6138 12885 6139 1 109.50000 418.400000
6138 12885 6140 1 109.50000 418.400000
6139 12885 6140 1 109.50000 418.400000
5532 12886 6141 1 109.50000 418.400000
5532 12886 6142 1 109.50000 418.400000
5532 12886 6143 1 109.50000 418.400000
6141 12886 6142 1 109.50000 418.400000
6141 12886 6143 1 109.50000 418.400000
6142 12886 6143 1 109.50000 418.400000
2049 12887 2248 1 109.50000 418.400000
2049 12887 2896 1 109.50000 418.400000
2049 12887 6144 1 109.50000 418.400000
2248 12887 2896 1 109.50000 418.400000
2248 12887 6144 1 109.50000 418.400000
2896 12887 6144 1 109.50000 418.400000
3996 12888 4443 1 109.50000 418.400000
3996 12888 6146 1 109.50000 418.400000
3996 12888 6321 1 109.50000 418.400000
4443 12888 6146 1 109.50000 418.400000
4443 12888 6321 1 109.50000 418.400000
6146 12888 6321 1 109.50000 418.400000
6150 12889 6151 1 109.50000 418.400000
6150 12889 6152 1 109.50000 418.400000
6150 12889 6153 1 109.50000 418.400000
6151 12889 6152 1 109.50000 418.400000
6151 12889 6153 1 109.50000 418.400000
6152 12889 6153 1 109.50000 418.400000
3973 12890 4286 1 109.50000 418.400000
3973 12890 5665 1 109.50000 418.400000
3973 12890 6154 1 109.50000 418.400000
4286 12890 5665 1 109.50000 418.400000
4286 12890 6154 1 109.50000 418.400000
5665 12890 6154 1 109.50000 418.400000
1093 12891 6155 1 109.50000 418.400000
1093 12891 6156 1 109.50000 418.400000
1093 12891 6157 1 109.50000 418.400000
6155 12891 6156 1 109.50000 418.400000
6155 12891 6157 1 109.50000 418.400000
6156 12891 6157 1 109.50000 418.400000
2983 12892 3693 1 109.50000 418.400000
2983 12892 6158 1 109.50000 418.400000
2983 12892 6159 1 109.50000 418.400000
3693 12892 6158 1 109.50000 418.400000
3693 12892 6159 1 109.50000 418.400000
6158 12892 6159 1 109.50000 418.400000
4746 12893 4801 1 109.50000 418.400000
4746 12893 4802 1 109.50000 418.400000
4746 12893 6160 1 109.50000 418.400000
4801 12893 4802 1 109.50000 418.400000
4801 12893 6160 1 109.50000 418.400000
4802 12893 6160 1 109.50000 418.400000
5464 12894 5466 1 109.50000 418.400000
5464 12894 6165 1 109.50000 418.400000
5464 12894 6166 1 109.50000 418.400000
5466 12894 6165 1 109.50000 418.400000
5466 12894 6166 1 109.50000 418.400000
6165 12894 6166 1 109.50000 418.400000
6168 12895 6169 1 109.50000 418.400000
6168 12895 6170 1 109.50000 418.400000
6168 12895 8848 1 109.50000 418.400000
6169 12895 6170 1 109.50000 418.400000
6169 12895 8848 1 109.50000 418.400000
6170 12895 8848 1 109.50000 418.400000
4293 12896 5672 1 109.50000 418.400000
4293 12896 6171 1 109.50000 418.400000
4293 12896 6172 1 109.50000 418.400000
5672 12896 6171 1 109.50000 418.400000
5672 12896 6172 1 109.50000 418.400000
6171 12896 6172 1 109.50000 418.400000
6038 12897 6173 1 109.50000 418.400000
6038 12897 6174 1 109.50000 418.400000
6038 12897 11178 1 109.50000 418.400000
6173 12897 6174 1 109.50000 418.400000
6173 12897 11178 1 109.50000 418.400000
6174 12897 11178 1 109.50000 418.400000
592 12898 4685 1 109.50000 418.400000
592 12898 6176 1 109.50000 418.400000
592 12898 6177 1 109.50000 418.400000
4685 12898 6176 1 109.50000 418.400000
4685 12898 6177 1 109.50000 418.400000
6176 12898 6177 1 109.50000 418.400000
437 12899 3324 1 109.50000 418.400000
437 12899 6179 1 109.50000 418.400000
437 12899 6180 1 109.50000 418.400000
3324 12899 6179 1 109.50000 418.400000
3324 12899 6180 1 109.50000 418.400000
6179 12899 6180 1 109.50000 418.400000
6181 12900 6182 1 109.50000 418.400000
6181 12900 6183 1 109.50000 418.400000
6181 12900 6184 1 109.50000 418.400000
6182 12900 6183 1 109.50000 418.400000
6182 12900 6184 1 109.50000 418.400000
6183 12900 6184 1 109.50000 418.400000
4111 12901 6185 1 109.50000 418.400000
4111 12901 6186 1 109.50000 418.400000
4111 12901 6187 1 109.50000 418.400000
6185 12901 6186 1 109.50000 418.400000
6185 12901 6187 1 109.50000 418.400000
6186 12901 6187 1 109.50000 418.400000
6188 12902 6189 1 109.50000 418.400000
6188 12902 6190 1 109.50000 418.400000
6188 12902 6191 1 109.50000 418.400000
6189 12902 6190 1 109.50000 418.400000
6189 12902 6191 1 109.50000 418.400000
6190 12902 6191 1 109.50000 418.400000
6193 12903 6194 1 109.50000 418.400000
6193 12903 6195 1 109.50000 418.400000
6193 12903 6196 1 109.50000 418.400000
6194 12903 6195 1 109.50000 418.400000
6194 12903 6196 1 109.50000 418.400000
6195 12903 6196 1 109.50000 418.400000
1718 12904 6200 1 109.50000 418.400000
1718 12904 6201 1 109.50000 418.400000
1718 12904 6202 1 109.50000 418.400000
6200 12904 6201 1 109.50000 418.400000
6200 12904 6202 1 109.50000 418.400000
6201 12904 6202 1 109.50000 418.400000
4499 12905 5159 1 109.50000 418.400000
4499 12905 6203 1 109.50000 418.400000
4499 12905 6204 1 109.50000 418.400000
5159 12905 6203 1 109.50000 418.400000
5159 12905 6204 1 109.50000 418.400000
6203 12905 6204 1 109.50000 418.400000
2712 12906 6205 1 109.50000 418.400000
2712 12906 6206 1 109.50000 418.400000
2712 12906 6207 1 109.50000 418.400000
6205 12906 6206 1 109.50000 418.400000
6205 12906 6207 1 109.50000 418.400000
6206 12906 6207 1 109.50000 418.400000
1101 12907 3236 1 109.50000 418.400000
1101 12907 6208 1 109.50000 418.400000
1101 12907 6209 1 109.50000 418.400000
3236 12907 6208 1 109.50000 418.400000
3236 12907 6209 1 109.50000 418.400000
6208 12907 6209 1 109.50000 418.400000
6210 12908 6211 1 109.50000 418.400000
6210 12908 6212 1 109.50000 418.400000
6210 12908 6213 1 109.50000 418.400000
6211 12908 6212 1 109.50000 418.400000
6211 12908 6213 1 109.50000 418.400000
6212 12908 6213 1 109.50000 418.400000
939 12909 4632 1 109.50000 418.400000
939 12909 6120 1 109.50000 418.400000
939 12909 6214 1 109.50000 418.400000
4632 12909 6120 1 109.50000 418.400000
4632 12909 6214 1 109.50000 418.400000
6120 12909 6214 1 109.50000 418.400000
3672 12910 6215 1 109.50000 418.400000
3672 12910 6216 1 109.50000 418.400000
3672 12910 6217 1 109.50000 418.400000
6215 12910 6216 1 109.50000 418.400000
6215 12910 6217 1 109.50000 418.400000
6216 12910 6217 1 109.50000 418.400000
473 12911 3491 1 109.50000 418.400000
473 12911 6218 1 109.50000 418.400000
473 12911 6219 1 109.50000 418.400000
3491 12911 6218 1 109.50000 418.400000
3491 12911 6219 1 109.50000 418.400000
6218 12911 6219 1 109.50000 418.400000
392 12912 5556 1 109.50000 418.400000
392 12912 6136 1 109.50000 418.400000
392 12912 6220 1 109.50000 418.400000
5556 12912 6136 1 109.50000 418.400000
5556 12912 6220 1 109.50000 418.400000
6136 12912 6220 1 109.50000 418.400000
2054 12913 2758 1 109.50000 418.400000
2054 12913 6221 1 109.50000 418.400000
2054 12913 6222 1 109.50000 418.400000
2758 12913 6221 1 109.50000 418.400000
2758 12913 6222 1 109.50000 418.400000
6221 12913 6222 1 109.50000 418.400000
449 12914 6223 1 109.50000 418.400000
449 12914 6224 1 109.50000 418.400000
449 12914 6225 1 109.50000 418.400000
6223 12914 6224 1 109.50000 418.400000
6223 12914 6225 1 109.50000 418.400000
6224 12914 6225 1 109.50000 418.400000
1091 12915 6226 1 109.50000 418.400000
1091 12915 6227 1 109.50000 418.400000
1091 12915 6228 1 109.50000 418.400000
6226 12915 6227 1 109.50000 418.400000
6226 12915 6228 1 109.50000 418.400000
6227 12915 6228 1 109.50000 418.400000
1121 12916 4211 1 109.50000 418.400000
1121 12916 6013 1 109.50000 418.400000
1121 12916 6235 1 109.50000 418.400000
4211 12916 6013 1 109.50000 418.400000
4211 12916 6235 1 109.50000 418.400000
6013 12916 6235 1 109.50000 418.400000
1232 12917 6236 1 109.50000 418.400000
1232 12917 6237 1 109.50000 418.400000
1232 12917 6238 1 109.50000 418.400000
6236 12917 6237 1 109.50000 418.400000
6236 12917 6238 1 109.50000 418.400000
6237 12917 6238 1 109.50000 418.400000
6239 12918 6240 1 109.50000 418.400000
6239 12918 6241 1 109.50000 418.400000
6239 12918 6242 1 109.50000 418.400000
6240 12918 6241 1 109.50000 418.400000
6240 12918 6242 1 109.50000 418.400000
6241 12918 6242 1 109.50000 418.400000
1891 12919 4578 1 109.50000 418.400000
1891 12919 6243 1 109.50000 418.400000
1891 12919 6244 1 109.50000 418.400000
4578 12919 6243 1 109.50000 418.400000
4578 12919 6244 1 109.50000 418.400000
6243 12919 6244 1 109.50000 418.400000
2307 12920 3952 1 109.50000 418.400000
2307 12920 6245 1 109.50000 418.400000
2307 12920 11040 1 109.50000 418.400000
3952 12920 6245 1 109.50000 418.400000
3952 12920 11040 1 109.50000 418.400000
6245 12920 11040 1 109.50000 418.400000
413 12921 2897 1 109.50000 418.400000
413 12921 6246 1 109.50000 418.400000
413 12921 6247 1 109.50000 418.400000
2897 12921 6246 1 109.50000 418.400000
2897 12921 6247 1 109.50000 418.400000
6246 12921 6247 1 109.50000 418.400000
850 12922 6248 1 109.50000 418.400000
850 12922 6249 1 109.50000 418.400000
850 12922 6250 1 109.50000 418.400000
6248 12922 6249 1 109.50000 418.400000
6248 12922 6250 1 109.50000 418.400000
6249 12922 6250 1 109.50000 418.400000
3587 12923 3588 1 109.50000 418.400000
3587 12923 4775 1 109.50000 418.400000
3587 12923 6251 1 109.50000 418.400000
3588 12923 4775 1 109.50000 418.400000
3588 12923 6251 1 109.50000 418.400000
4775 12923 6251 1 109.50000 418.400000
878 12924 6252 1 109.50000 418.400000
878 12924 6253 1 109.50000 418.400000
878 12924 6254 1 109.50000 418.400000
6252 12924 6253 1 109.50000 418.400000
6252 12924 6254 1 109.50000 418.400000
6253 12924 6254 1 109.50000 418.400000
6255 12925 6257 1 109.50000 418.400000
6255 12925 6258 1 109.50000 418.400000
6255 12925 8022 1 109.50000 418.400000
6257 12925 6258 1 109.50000 418.400000
6257 12925 8022 1 109.50000 418.400000
6258 12925 8022 1 109.50000 418.400000
4441 12926 6259 1 109.50000 418.400000
4441 12926 6260 1 109.50000 418.400000
4441 12926 6261 1 109.50000 418.400000
6259 12926 6260 1 109.50000 418.400000
6259 12926 6261 1 109.50000 418.400000
6260 12926 6261 1 109.50000 418.400000
371 12927 372 1 109.50000 418.400000
371 12927 373 1 109.50000 418.400000
371 12927 6180 1 109.50000 418.400000
372 12927 373 1 109.50000 418.400000
372 12927 6180 1 109.50000 418.400000
373 12927 6180 1 109.50000 418.400000
6268 12928 6269 1 109.50000 418.400000
6268 12928 6270 1 109.50000 418.400000
6268 12928 6271 1 109.50000 418.400000
6269 12928 6270 1 109.50000 418.400000
6269 12928 6271 1 109.50000 418.400000
6270 12928 6271 1 109.50000 418.400000
6272 12929 6273 1 109.50000 418.400000
6272 12929 6274 1 109.50000 418.400000
6272 12929 6645 1 109.50000 418.400000
6273 12929 6274 1 109.50000 418.400000
6273 12929 6645 1 109.50000 418.400000
6274 12929 6645 1 109.50000 418.400000
6278 12930 6279 1 109.50000 418.400000
6278 12930 6280 1 109.50000 418.400000
6278 12930 6281 1 109.50000 418.400000
6279 12930 6280 1 109.50000 418.400000
6279 12930 6281 1 109.50000 418.400000
6280 12930 6281 1 109.50000 418.400000
1475 12931 2616 1 109.50000 418.400000
1475 12931 3373 1 109.50000 418.400000
1475 12931 6282 1 109.50000 418.400000
2616 12931 3373 1 109.50000 418.400000
2616 12931 6282 1 109.50000 418.400000
3373 12931 6282 1 109.50000 418.400000
5812 12932 6283 1 109.50000 418.400000
5812 12932 6284 1 109.50000 418.400000
5812 12932 6285 1 109.50000 418.400000
6283 12932 6284 1 109.50000 418.400000
6283 12932 6285 1 109.50000 418.400000
6284 12932 6285 1 109.50000 418.400000
1277 12933 3654 1 109.50000 418.400000
1277 12933 6286 1 109.50000 418.400000
1277 12933 6287 1 109.50000 418.400000
3654 12933 6286 1 109.50000 418.400000
3654 12933 6287 1 109.50000 418.400000
6286 12933 6287 1 109.50000 418.400000
1916 12934 5293 1 109.50000 418.400000
1916 12934 6288 1 109.50000 418.400000
1916 12934 6289 1 109.50000 418.400000
5293 12934 6288 1 109.50000 418.400000
5293 12934 6289 1 109.50000 418.400000
6288 12934 6289 1 109.50000 418.400000
1275 12935 3964 1 109.50000 418.400000
1275 12935 6290 1 109.50000 418.400000
1275 12935 6291 1 109.50000 418.400000
3964 12935 6290 1 109.50000 418.400000
3964 12935 6291 1 109.50000 418.400000
6290 12935 6291 1 109.50000 418.400000
5873 12936 6292 1 109.50000 418.400000
5873 12936 6293 1 109.50000 418.400000
5873 12936 6294 1 109.50000 418.400000
6292 12936 6293 1 109.50000 418.400000
6292 12936 6294 1 109.50000 418.400000
6293 12936 6294 1 109.50000 418.400000
3286 12937 6008 1 109.50000 418.400000
3286 12937 6295 1 109.50000 418.400000
3286 12937 6296 1 109.50000 418.400000
6008 12937 6295 1 109.50000 418.400000
6008 12937 6296 1 109.50000 418.400000
6295 12937 6296 1 109.50000 418.400000
6297 12938 6298 1 109.50000 418.400000
6297 12938 6299 1 109.50000 418.400000
6297 12938 6300 1 109.50000 418.400000
6298 12938 6299 1 109.50000 418.400000
6298 12938 6300 1 109.50000 418.400000
6299 12938 6300 1 109.50000 418.400000
1757 12939 6301 1 109.50000 418.400000
1757 12939 6302 1 109.50000 418.400000
1757 12939 6303 1 109.50000 418.400000
6301 12939 6302 1 109.50000 418.400000
6301 12939 6303 1 109.50000 418.400000
6302 12939 6303 1 109.50000 418.400000
4131 12940 4973 1 109.50000 418.400000
4131 12940 6304 1 109.50000 418.400000
4131 12940 6305 1 109.50000 418.400000
4973 12940 6304 1 109.50000 418.400000
4973 12940 6305 1 109.50000 418.400000
6304 12940 6305 1 109.50000 418.400000
3368 12941 6306 1 109.50000 418.400000
3368 12941 6307 1 109.50000 418.400000
3368 12941 6308 1 109.50000 418.400000
6306 12941 6307 1 109.50000 418.400000
6306 12941 6308 1 109.50000 418.400000
6307 12941 6308 1 109.50000 418.400000
5218 12942 6309 1 109.50000 418.400000
5218 12942 6310 1 109.50000 418.400000
5218 12942 11158 1 109.50000 418.400000
6309 12942 6310 1 109.50000 418.400000
6309 12942 11158 1 109.50000 418.400000
6310 12942 11158 1 109.50000 418.400000
1996 12943 6311 1 109.50000 418.400000
1996 12943 6312 1 109.50000 418.400000
1996 12943 6313 1 109.50000 418.400000
6311 12943 6312 1 109.50000 418.400000
6311 12943 6313 1 109.50000 418.400000
6312 12943 6313 1 109.50000 418.400000
4047 12944 6316 1 109.50000 418.400000
4047 12944 6317 1 109.50000 418.400000
4047 12944 6318 1 109.50000 418.400000
6316 12944 6317 1 109.50000 418.400000
6316 12944 6318 1 109.50000 418.400000
6317 12944 6318 1 109.50000 418.400000
6319 12945 6320 1 109.50000 418.400000
6319 12945 6321 1 109.50000 418.400000
6319 12945 6322 1 109.50000 418.400000
6320 12945 6321 1 109.50000 418.400000
6320 12945 6322 1 109.50000 418.400000
6321 12945 6322 1 109.50000 418.400000
5166 12946 5675 1 109.50000 418.400000
5166 12946 6323 1 109.50000 418.400000
5166 12946 6324 1 109.50000 418.400000
5675 12946 6323 1 109.50000 418.400000
5675 12946 6324 1 109.50000 418.400000
6323 12946 6324 1 109.50000 418.400000
2126 12947 6325 1 109.50000 418.400000
2126 12947 6326 1 109.50000 418.400000
2126 12947 6327 1 109.50000 418.400000
6325 12947 6326 1 109.50000 418.400000
6325 12947 6327 1 109.50000 418.400000
6326 12947 6327 1 109.50000 418.400000
2735 12948 6328 1 109.50000 418.400000
2735 12948 6329 1 109.50000 418.400000
2735 12948 6330 1 109.50000 418.400000
6328 12948 6329 1 109.50000 418.400000
6328 12948 6330 1 109.50000 418.400000
6329 12948 6330 1 109.50000 418.400000
6331 12949 6332 1 109.50000 418.400000
6331 12949 6333 1 109.50000 418.400000
6331 12949 6334 1 109.50000 418.400000
6332 12949 6333 1 109.50000 418.400000
6332 12949 6334 1 109.50000 418.400000
6333 12949 6334 1 109.50000 418.400000
87 12950 5533 1 109.50000 418.400000
87 12950 6336 1 109.50000 418.400000
87 12950 9085 1 109.50000 418.400000
5533 12950 6336 1 109.50000 418.400000
5533 12950 9085 1 109.50000 418.400000
6336 12950 9085 1 109.50000 418.400000
3369 12951 5534 1 109.50000 418.400000
3369 12951 6338 1 109.50000 418.400000
3369 12951 6339 1 109.50000 418.400000
5534 12951 6338 1 109.50000 418.400000
5534 12951 6339 1 109.50000 418.400000
6338 12951 6339 1 109.50000 418.400000
4223 12952 6340 1 109.50000 418.400000
4223 12952 6341 1 109.50000 418.400000
4223 12952 6342 1 109.50000 418.400000
6340 12952 6341 1 109.50000 418.400000
6340 12952 6342 1 109.50000 418.400000
6341 12952 6342 1 109.50000 418.400000
1950 12953 2017 1 109.50000 418.400000
1950 12953 6343 1 109.50000 418.400000
1950 12953 6345 1 109.50000 418.400000
2017 12953 6343 1 109.50000 418.400000
2017 12953 6345 1 109.50000 418.400000
6343 12953 6345 1 109.50000 418.400000
6346 12954 6347 1 109.50000 418.400000
6346 12954 6348 1 109.50000 418.400000
6346 12954 6349 1 109.50000 418.400000
6347 12954 6348 1 109.50000 418.400000
6347 12954 6349 1 109.50000 418.400000
6348 12954 6349 1 109.50000 418.400000
2052 12955 2719 1 109.50000 418.400000
2052 12955 6352 1 109.50000 418.400000
2052 12955 6353 1 109.50000 418.400000
2719 12955 6352 1 109.50000 418.400000
2719 12955 6353 1 109.50000 418.400000
6352 12955 6353 1 109.50000 418.400000
5113 12956 5115 1 109.50000 418.400000
5113 12956 6354 1 109.50000 418.400000
5113 12956 6355 1 109.50000 418.400000
5115 12956 6354 1 109.50000 418.400000
5115 12956 6355 1 109.50000 418.400000
6354 12956 6355 1 109.50000 418.400000
423 12957 3117 1 109.50000 418.400000
423 12957 4717 1 109.50000 418.400000
423 12957 6357 1 109.50000 418.400000
3117 12957 4717 1 109.50000 418.400000
3117 12957 6357 1 109.50000 418.400000
4717 12957 6357 1 109.50000 418.400000
3090 12958 5951 1 109.50000 418.400000
3090 12958 6358 1 109.50000 418.400000
3090 12958 6359 1 109.50000 418.400000
5951 12958 6358 1 109.50000 418.400000
5951 12958 6359 1 109.50000 418.400000
6358 12958 6359 1 109.50000 418.400000
6360 12959 6362 1 109.50000 418.400000
6360 12959 6363 1 109.50000 418.400000
6360 12959 7308 1 109.50000 418.400000
6362 12959 6363 1 109.50000 418.400000
6362 12959 7308 1 109.50000 418.400000
6363 12959 7308 1 109.50000 418.400000
6364 12960 6365 1 109.50000 418.400000
6364 12960 6366 1 109.50000 418.400000
6364 12960 6367 1 109.50000 418.400000
6365 12960 6366 1 109.50000 418.400000
6365 12960 6367 1 109.50000 418.400000
6366 12960 6367 1 109.50000 418.400000
3994 12961 6368 1 109.50000 418.400000
3994 12961 6369 1 109.50000 418.400000
3994 12961 6370 1 109.50000 418.400000
6368 12961 6369 1 109.50000 418.400000
6368 12961 6370 1 109.50000 418.400000
6369 12961 6370 1 109.50000 418.400000
2967 12962 6371 1 109.50000 418.400000
2967 12962 6372 1 109.50000 418.400000
2967 12962 6373 1 109.50000 418.400000
6371 12962 6372 1 109.50000 418.400000
6371 12962 6373 1 109.50000 418.400000
6372 12962 6373 1 109.50000 418.400000
5340 12963 6313 1 109.50000 418.400000
5340 12963 6374 1 109.50000 418.400000
5340 12963 6375 1 109.50000 418.400000
6313 12963 6374 1 109.50000 418.400000
6313 12963 6375 1 109.50000 418.400000
6374 12963 6375 1 109.50000 418.400000
515 12964 5700 1 109.50000 418.400000
515 12964 6376 1 109.50000 418.400000
515 12964 6377 1 109.50000 418.400000
5700 12964 6376 1 109.50000 418.400000
5700 12964 6377 1 109.50000 418.400000
6376 12964 6377 1 109.50000 418.400000
818 12965 2222 1 109.50000 418.400000
818 12965 5510 1 109.50000 418.400000
818 12965 6381 1 109.50000 418.400000
2222 12965 5510 1 109.50000 418.400000
2222 12965 6381 1 109.50000 418.400000
5510 12965 6381 1 109.50000 418.400000
6387 12966 6388 1 109.50000 418.400000
6387 12966 6389 1 109.50000 418.400000
6387 12966 6390 1 109.50000 418.400000
6388 12966 6389 1 109.50000 418.400000
6388 12966 6390 1 109.50000 418.400000
6389 12966 6390 1 109.50000 418.400000
6391 12967 6392 1 109.50000 418.400000
6391 12967 6393 1 109.50000 418.400000
6391 12967 6394 1 109.50000 418.400000
6392 12967 6393 1 109.50000 418.400000
6392 12967 6394 1 109.50000 418.400000
6393 12967 6394 1 109.50000 418.400000
5661 12968 6398 1 109.50000 418.400000
5661 12968 6399 1 109.50000 418.400000
5661 12968 6778 1 109.50000 418.400000
6398 12968 6399 1 109.50000 418.400000
6398 12968 6778 1 109.50000 418.400000
6399 12968 6778 1 109.50000 418.400000
6402 12969 6403 1 109.50000 418.400000
6402 12969 10022 1 109.50000 418.400000
6402 12969 10024 1 109.50000 418.400000
6403 12969 10022 1 109.50000 418.400000
6403 12969 10024 1 109.50000 418.400000
10022 12969 10024 1 109.50000 418.400000
3944 12970 5219 1 109.50000 418.400000
3944 12970 6407 1 109.50000 418.400000
3944 12970 6408 1 109.50000 418.400000
5219 12970 6407 1 109.50000 418.400000
5219 12970 6408 1 109.50000 418.400000
6407 12970 6408 1 109.50000 418.400000
2615 12971 4908 1 109.50000 418.400000
2615 12971 6392 1 109.50000 418.400000
2615 12971 6409 1 109.50000 418.400000
4908 12971 6392 1 109.50000 418.400000
4908 12971 6409 1 109.50000 418.400000
6392 12971 6409 1 109.50000 418.400000
1025 12972 4844 1 109.50000 418.400000
1025 12972 6410 1 109.50000 418.400000
1025 12972 6411 1 109.50000 418.400000
4844 12972 6410 1 109.50000 418.400000
4844 12972 6411 1 109.50000 418.400000
6410 12972 6411 1 109.50000 418.400000
1420 12973 1734 1 109.50000 418.400000
1420 12973 6414 1 109.50000 418.400000
1420 12973 7233 1 109.50000 418.400000
1734 12973 6414 1 109.50000 418.400000
1734 12973 7233 1 109.50000 418.400000
6414 12973 7233 1 109.50000 418.400000
686 12974 4435 1 109.50000 418.400000
686 12974 4862 1 109.50000 418.400000
686 12974 6415 1 109.50000 418.400000
4435 12974 4862 1 109.50000 418.400000
4435 12974 6415 1 109.50000 418.400000
4862 12974 6415 1 109.50000 418.400000
5027 12975 6416 1 109.50000 418.400000
5027 12975 6418 1 109.50000 418.400000
5027 12975 7865 1 109.50000 418.400000
6416 12975 6418 1 109.50000 418.400000
6416 12975 7865 1 109.50000 418.400000
6418 12975 7865 1 109.50000 418.400000
3813 12976 4730 1 109.50000 418.400000
3813 12976 6419 1 109.50000 418.400000
3813 12976 6420 1 109.50000 418.400000
4730 12976 6419 1 109.50000 418.400000
4730 12976 6420 1 109.50000 418.400000
6419 12976 6420 1 109.50000 418.400000
808 12977 3227 1 109.50000 418.400000
808 12977 6421 1 109.50000 418.400000
808 12977 6422 1 109.50000 418.400000
3227 12977 6421 1 109.50000 418.400000
3227 12977 6422 1 109.50000 418.400000
6421 12977 6422 1 109.50000 418.400000
3302 12978 4511 1 109.50000 418.400000
3302 12978 6423 1 109.50000 418.400000
3302 12978 11214 1 109.50000 418.400000
4511 12978 6423 1 109.50000 418.400000
4511 12978 11214 1 109.50000 418.400000
6423 12978 11214 1 109.50000 418.400000
6424 12979 6425 1 109.50000 418.400000
6424 12979 6426 1 109.50000 418.400000
6424 12979 6427 1 109.50000 418.400000
6425 12979 6426 1 109.50000 418.400000
6425 12979 6427 1 109.50000 418.400000
6426 12979 6427 1 109.50000 418.400000
4430 12980 4902 1 109.50000 418.400000
4430 12980 6428 1 109.50000 418.400000
4430 12980 6429 1 109.50000 418.400000
4902 12980 6428 1 109.50000 418.400000
4902 12980 6429 1 109.50000 418.400000
6428 12980 6429 1 109.50000 418.400000
163 12981 5067 1 109.50000 418.400000
163 12981 6430 1 109.50000 418.400000
163 12981 6431 1 109.50000 418.400000
5067 12981 6430 1 109.50000 418.400000
5067 12981 6431 1 109.50000 418.400000
6430 12981 6431 1 109.50000 418.400000
3239 12982 5007 1 109.50000 418.400000
3239 12982 6432 1 109.50000 418.400000
3239 12982 6433 1 109.50000 418.400000
5007 12982 6432 1 109.50000 418.400000
5007 12982 6433 1 109.50000 418.400000
6432 12982 6433 1 109.50000 418.400000
6406 12983 6434 1 109.50000 418.400000
6406 12983 6435 1 109.50000 418.400000
6406 12983 6436 1 109.50000 418.400000
6434 12983 6435 1 109.50000 418.400000
6434 12983 6436 1 109.50000 418.400000
6435 12983 6436 1 109.50000 418.400000
134 12984 5025 1 109.50000 418.400000
134 12984 6438 1 109.50000 418.400000
134 12984 6439 1 109.50000 418.400000
5025 12984 6438 1 109.50000 418.400000
5025 12984 6439 1 109.50000 418.400000
6438 12984 6439 1 109.50000 418.400000
5104 12985 6440 1 109.50000 418.400000
5104 12985 6441 1 109.50000 418.400000
5104 12985 6442 1 109.50000 418.400000
6440 12985 6441 1 109.50000 418.400000
6440 12985 6442 1 109.50000 418.400000
6441 12985 6442 1 109.50000 418.400000
6443 12986 6444 1 109.50000 418.400000
6443 12986 6445 1 109.50000 418.400000
6443 12986 6446 1 109.50000 418.400000
6444 12986 6445 1 109.50000 418.400000
6444 12986 6446 1 109.50000 418.400000
6445 12986 6446 1 109.50000 418.400000
1261 12987 6447 1 109.50000 418.400000
1261 12987 6448 1 109.50000 418.400000
1261 12987 6449 1 109.50000 418.400000
6447 12987 6448 1 109.50000 418.400000
6447 12987 6449 1 109.50000 418.400000
6448 12987 6449 1 109.50000 418.400000
5992 12988 6450 1 109.50000 418.400000
5992 12988 6451 1 109.50000 418.400000
5992 12988 6452 1 109.50000 418.400000
6450 12988 6451 1 109.50000 418.400000
6450 12988 6452 1 109.50000 418.400000
6451 12988 6452 1 109.50000 418.400000
3290 12989 6453 1 109.50000 418.400000
3290 12989 6454 1 109.50000 418.400000
3290 12989 6455 1 109.50000 418.400000
6453 12989 6454 1 109.50000 418.400000
6453 12989 6455 1 109.50000 418.400000
6454 12989 6455 1 109.50000 418.400000
6456 12990 6457 1 109.50000 418.400000
6456 12990 6458 1 109.50000 418.400000
6456 12990 6459 1 109.50000 418.400000
6457 12990 6458 1 109.50000 418.400000
6457 12990 6459 1 109.50000 418.400000
6458 12990 6459 1 109.50000 418.400000
6460 12991 6461 1 109.50000 418.400000
6460 12991 6462 1 109.50000 418.400000
6460 12991 6463 1 109.50000 418.400000
6461 12991 6462 1 109.50000 418.400000
6461 12991 6463 1 109.50000 418.400000
6462 12991 6463 1 109.50000 418.400000
5519 12992 6464 1 109.50000 418.400000
5519 12992 6465 1 109.50000 418.400000
5519 12992 6466 1 109.50000 418.400000
6464 12992 6465 1 109.50000 418.400000
6464 12992 6466 1 109.50000 418.400000
6465 12992 6466 1 109.50000 418.400000
1421 12993 4026 1 109.50000 418.400000
1421 12993 4027 1 109.50000 418.400000
1421 12993 6469 1 109.50000 418.400000
4026 12993 4027 1 109.50000 418.400000
4026 12993 6469 1 109.50000 418.400000
4027 12993 6469 1 109.50000 418.400000
1000 12994 4411 1 109.50000 418.400000
1000 12994 6471 1 109.50000 418.400000
1000 12994 6472 1 109.50000 418.400000
4411 12994 6471 1 109.50000 418.400000
4411 12994 6472 1 109.50000 418.400000
6471 12994 6472 1 109.50000 418.400000
2892 12995 6473 1 109.50000 418.400000
2892 12995 6474 1 109.50000 418.400000
2892 12995 6475 1 109.50000 418.400000
6473 12995 6474 1 109.50000 418.400000
6473 12995 6475 1 109.50000 418.400000
6474 12995 6475 1 109.50000 418.400000
1235 12996 6476 1 109.50000 418.400000
1235 12996 6477 1 109.50000 418.400000
1235 12996 6478 1 109.50000 418.400000
6476 12996 6477 1 109.50000 418.400000
6476 12996 6478 1 109.50000 418.400000
6477 12996 6478 1 109.50000 418.400000
1605 12997 3649 1 109.50000 418.400000
1605 12997 3799 1 109.50000 418.400000
1605 12997 6479 1 109.50000 418.400000
3649 12997 3799 1 109.50000 418.400000
3649 12997 6479 1 109.50000 418.400000
3799 12997 6479 1 109.50000 418.400000
4015 12998 6480 1 109.50000 418.400000
4015 12998 6481 1 109.50000 418.400000
4015 12998 6482 1 109.50000 418.400000
6480 12998 6481 1 109.50000 418.400000
6480 12998 6482 1 109.50000 418.400000
6481 12998 6482 1 109.50000 418.400000
3341 12999 6483 1 109.50000 418.400000
3341 12999 6484 1 109.50000 418.400000
3341 12999 6485 1 109.50000 418.400000
6483 12999 6484 1 109.50000 418.400000
6483 12999 6485 1 109.50000 418.400000
6484 12999 6485 1 109.50000 418.400000
569 13000 1655 1 109.50000 418.400000
569 13000 3453 1 109.50000 418.400000
569 13000 6489 1 109.50000 418.400000
1655 13000 3453 1 109.50000 418.400000
1655 13000 6489 1 109.50000 418.400000
3453 13000 6489 1 109.50000 418.400000
3298 13001 3300 1 109.50000 418.400000
3298 13001 6490 1 109.50000 418.400000
3298 13001 6491 1 109.50000 418.400000
3300 13001 6490 1 109.50000 418.400000
3300 13001 6491 1 109.50000 418.400000
6490 13001 6491 1 109.50000 418.400000
6493 13002 6494 1 109.50000 418.400000
6493 13002 6495 1 109.50000 418.400000
6493 13002 6496 1 109.50000 418.400000
6494 13002 6495 1 109.50000 418.400000
6494 13002 6496 1 109.50000 418.400000
6495 13002 6496 1 109.50000 418.400000
6497 13003 6498 1 109.50000 418.400000
6497 13003 6499 1 109.50000 418.400000
6497 13003 6500 1 109.50000 418.400000
6498 13003 6499 1 109.50000 418.400000
6498 13003 6500 1 109.50000 418.400000
6499 13003 6500 1 109.50000 418.400000
1716 13004 5704 1 109.50000 418.400000
1716 13004 6501 1 109.50000 418.400000
1716 13004 6502 1 109.50000 418.400000
5704 13004 6501 1 109.50000 418.400000
5704 13004 6502 1 109.50000 418.400000
6501 13004 6502 1 109.50000 418.400000
420 13005 4794 1 109.50000 418.400000
420 13005 6503 1 109.50000 418.400000
420 13005 6504 1 109.50000 418.400000
4794 13005 6503 1 109.50000 418.400000
4794 13005 6504 1 109.50000 418.400000
6503 13005 6504 1 109.50000 418.400000
216 13006 1144 1 109.50000 418.400000
216 13006 6505 1 109.50000 418.400000
216 13006 6506 1 109.50000 418.400000
1144 13006 6505 1 109.50000 418.400000
1144 13006 6506 1 109.50000 418.400000
6505 13006 6506 1 109.50000 418.400000
1097 13007 3532 1 109.50000 418.400000
1097 13007 5312 1 109.50000 418.400000
1097 13007 6507 1 109.50000 418.400000
3532 13007 5312 1 109.50000 418.400000
3532 13007 6507 1 109.50000 418.400000
5312 13007 6507 1 109.50000 418.400000
6508 13008 6509 1 109.50000 418.400000
6508 13008 6510 1 109.50000 418.400000
6508 13008 6511 1 109.50000 418.400000
6509 13008 6510 1 109.50000 418.400000
6509 13008 6511 1 109.50000 418.400000
6510 13008 6511 1 109.50000 418.400000
1872 13009 5784 1 109.50000 418.400000
1872 13009 6062 1 109.50000 418.400000
1872 13009 6512 1 109.50000 418.400000
5784 13009 6062 1 109.50000 418.400000
5784 13009 6512 1 109.50000 418.400000
6062 13009 6512 1 109.50000 418.400000
2266 13010 5983 1 109.50000 418.400000
2266 13010 6513 1 109.50000 418.400000
2266 13010 6514 1 109.50000 418.400000
5983 13010 6513 1 109.50000 418.400000
5983 13010 6514 1 109.50000 418.400000
6513 13010 6514 1 109.50000 418.400000
2686 13011 4741 1 109.50000 418.400000
2686 13011 6515 1 109.50000 418.400000
2686 13011 6516 1 109.50000 418.400000
4741 13011 6515 1 109.50000 418.400000
4741 13011 6516 1 109.50000 418.400000
6515 13011 6516 1 109.50000 418.400000
4103 13012 6517 1 109.50000 418.400000
4103 13012 6518 1 109.50000 418.400000
4103 13012 8916 1 109.50000 418.400000
6517 13012 6518 1 109.50000 418.400000
6517 13012 8916 1 109.50000 418.400000
6518 13012 8916 1 109.50000 418.400000
3729 13013 6520 1 109.50000 418.400000
3729 13013 6521 1 109.50000 418.400000
3729 13013 9788 1 109.50000 418.400000
6520 13013 6521 1 109.50000 418.400000
6520 13013 9788 1 109.50000 418.400000
6521 13013 9788 1 109.50000 418.400000
1650 13014 6522 1 109.50000 418.400000
1650 13014 6523 1 109.50000 418.400000
1650 13014 6524 1 109.50000 418.400000
6522 13014 6523 1 109.50000 418.400000
6522 13014 6524 1 109.50000 418.400000
6523 13014 6524 1 109.50000 418.400000
1664 13015 6527 1 109.50000 418.400000
1664 13015 6528 1 109.50000 418.400000
1664 13015 6529 1 109.50000 418.400000
6527 13015 6528 1 109.50000 418.400000
6527 13015 6529 1 109.50000 418.400000
6528 13015 6529 1 109.50000 418.400000
505 13016 1594 1 109.50000 418.400000
505 13016 6530 1 109.50000 418.400000
505 13016 6531 1 109.50000 418.400000
1594 13016 6530 1 109.50000 418.400000
1594 13016 6531 1 109.50000 418.400000
6530 13016 6531 1 109.50000 418.400000
6532 13017 6533 1 109.50000 418.400000
6532 13017 6534 1 109.50000 418.400000
6532 13017 6535 1 109.50000 418.400000
6533 13017 6534 1 109.50000 418.400000
6533 13017 6535 1 109.50000 418.400000
6534 13017 6535 1 109.50000 418.400000
667 13018 2672 1 109.50000 418.400000
667 13018 6536 1 109.50000 418.400000
667 13018 6537 1 109.50000 418.400000
2672 13018 6536 1 109.50000 418.400000
2672 13018 6537 1 109.50000 418.400000
6536 13018 6537 1 109.50000 418.400000
600 13019 5830 1 109.50000 418.400000
600 13019 6538 1 109.50000 418.400000
600 13019 6539 1 109.50000 418.400000
5830 13019 6538 1 109.50000 418.400000
5830 13019 6539 1 109.50000 418.400000
6538 13019 6539 1 109.50000 418.400000
787 13020 2709 1 109.50000 418.400000
787 13020 3980 1 109.50000 418.400000
787 13020 5754 1 109.50000 418.400000
2709 13020 3980 1 109.50000 418.400000
2709 13020 5754 1 109.50000 418.400000
3980 13020 5754 1 109.50000 418.400000
6540 13021 6541 1 109.50000 418.400000
6540 13021 6542 1 109.50000 418.400000
6540 13021 6543 1 109.50000 418.400000
6541 13021 6542 1 109.50000 418.400000
6541 13021 6543 1 109.50000 418.400000
6542 13021 6543 1 109.50000 418.400000
6544 13022 6545 1 109.50000 418.400000
6544 13022 8277 1 109.50000 418.400000
6544 13022 8279 1 109.50000 418.400000
6545 13022 8277 1 109.50000 418.400000
6545 13022 8279 1 109.50000 418.400000
8277 13022 8279 1 109.50000 418.400000
490 13023 1063 1 109.50000 418.400000
490 13023 1064 1 109.50000 418.400000
490 13023 1065 1 109.50000 418.400000
1063 13023 1064 1 109.50000 418.400000
1063 13023 1065 1 109.50000 418.400000
1064 13023 1065 1 109.50000 418.400000
552 13024 6550 1 109.50000 418.400000
552 13024 6551 1 109.50000 418.400000
552 13024 6822 1 109.50000 418.400000
6550 13024 6551 1 109.50000 418.400000
6550 13024 6822 1 109.50000 418.400000
6551 13024 6822 1 109.50000 418.400000
5902 13025 5925 1 109.50000 418.400000
5902 13025 6553 1 109.50000 418.400000
5902 13025 6554 1 109.50000 418.400000
5925 13025 6553 1 109.50000 418.400000
5925 13025 6554 1 109.50000 418.400000
6553 13025 6554 1 109.50000 418.400000
870 13026 2515 1 109.50000 418.400000
870 13026 5948 1 109.50000 418.400000
870 13026 6555 1 109.50000 418.400000
2515 13026 5948 1 109.50000 418.400000
2515 13026 6555 1 109.50000 418.400000
5948 13026 6555 1 109.50000 418.400000
6559 13027 6560 1 109.50000 418.400000
6559 13027 6561 1 109.50000 418.400000
6559 13027 6562 1 109.50000 418.400000
6560 13027 6561 1 109.50000 418.400000
6560 13027 6562 1 109.50000 418.400000
6561 13027 6562 1 109.50000 418.400000
2444 13028 6563 1 109.50000 418.400000
2444 13028 6564 1 109.50000 418.400000
2444 13028 6565 1 109.50000 418.400000
6563 13028 6564 1 109.50000 418.400000
6563 13028 6565 1 109.50000 418.400000
6564 13028 6565 1 109.50000 418.400000
238 13029 3590 1 109.50000 418.400000
238 13029 6141 1 109.50000 418.400000
238 13029 6571 1 109.50000 418.400000
3590 13029 6141 1 109.50000 418.400000
3590 13029 6571 1 109.50000 418.400000
6141 13029 6571 1 109.50000 418.400000
4468 13030 6575 1 109.50000 418.400000
4468 13030 6576 1 109.50000 418.400000
4468 13030 6577 1 109.50000 418.400000
6575 13030 6576 1 109.50000 418.400000
6575 13030 6577 1 109.50000 418.400000
6576 13030 6577 1 109.50000 418.400000
1433 13031 6578 1 109.50000 418.400000
1433 13031 6579 1 109.50000 418.400000
1433 13031 6580 1 109.50000 418.400000
6578 13031 6579 1 109.50000 418.400000
6578 13031 6580 1 109.50000 418.400000
6579 13031 6580 1 109.50000 418.400000
6582 13032 6583 1 109.50000 418.400000
6582 13032 6584 1 109.50000 418.400000
6582 13032 6585 1 109.50000 418.400000
6583 13032 6584 1 109.50000 418.400000
6583 13032 6585 1 109.50000 418.400000
6584 13032 6585 1 109.50000 418.400000
2380 13033 3156 1 109.50000 418.400000
2380 13033 4547 1 109.50000 418.400000
2380 13033 6586 1 109.50000 418.400000
3156 13033 4547 1 109.50000 418.400000
3156 13033 6586 1 109.50000 418.400000
4547 13033 6586 1 109.50000 418.400000
6589 13034 6590 1 109.50000 418.400000
6589 13034 6591 1 109.50000 418.400000
6589 13034 6616 1 109.50000 418.400000
6590 13034 6591 1 109.50000 418.400000
6590 13034 6616 1 109.50000 418.400000
6591 13034 6616 1 109.50000 418.400000
2013 13035 2962 1 109.50000 418.400000
2013 13035 6592 1 109.50000 418.400000
2013 13035 6593 1 109.50000 418.400000
2962 13035 6592 1 109.50000 418.400000
2962 13035 6593 1 109.50000 418.400000
6592 13035 6593 1 109.50000 418.400000
418 13036 6594 1 109.50000 418.400000
418 13036 6595 1 109.50000 418.400000
418 13036 6596 1 109.50000 418.400000
6594 13036 6595 1 109.50000 418.400000
6594 13036 6596 1 109.50000 418.400000
6595 13036 6596 1 109.50000 418.400000
2345 13037 6597 1 109.50000 418.400000
2345 13037 6598 1 109.50000 418.400000
2345 13037 6599 1 109.50000 418.400000
6597 13037 6598 1 109.50000 418.400000
6597 13037 6599 1 109.50000 418.400000
6598 13037 6599 1 109.50000 418.400000
6602 13038 6603 1 109.50000 418.400000
6602 13038 6604 1 109.50000 418.400000
6602 13038 6605 1 109.50000 418.400000
6603 13038 6604 1 109.50000 418.400000
6603 13038 6605 1 109.50000 418.400000
6604 13038 6605 1 109.50000 418.400000
1392 13039 5733 1 109.50000 418.400000
1392 13039 6606 1 109.50000 418.400000
1392 13039 6607 1 109.50000 418.400000
5733 13039 6606 1 109.50000 418.400000
5733 13039 6607 1 109.50000 418.400000
6606 13039 6607 1 109.50000 418.400000
6608 13040 6609 1 109.50000 418.400000
6608 13040 6610 1 109.50000 418.400000
6608 13040 6611 1 109.50000 418.400000
6609 13040 6610 1 109.50000 418.400000
6609 13040 6611 1 109.50000 418.400000
6610 13040 6611 1 109.50000 418.400000
2696 13041 6612 1 109.50000 418.400000
2696 13041 6613 1 109.50000 418.400000
2696 13041 6614 1 109.50000 418.400000
6612 13041 6613 1 109.50000 418.400000
6612 13041 6614 1 109.50000 418.400000
6613 13041 6614 1 109.50000 418.400000
965 13042 6615 1 109.50000 418.400000
965 13042 6616 1 109.50000 418.400000
965 13042 6617 1 109.50000 418.400000
6615 13042 6616 1 109.50000 418.400000
6615 13042 6617 1 109.50000 418.400000
6616 13042 6617 1 109.50000 418.400000
3061 13043 4696 1 109.50000 418.400000
3061 13043 6618 1 109.50000 418.400000
3061 13043 6619 1 109.50000 418.400000
4696 13043 6618 1 109.50000 418.400000
4696 13043 6619 1 109.50000 418.400000
6618 13043 6619 1 109.50000 418.400000
2706 13044 6620 1 109.50000 418.400000
2706 13044 6621 1 109.50000 418.400000
2706 13044 7477 1 109.50000 418.400000
6620 13044 6621 1 109.50000 418.400000
6620 13044 7477 1 109.50000 418.400000
6621 13044 7477 1 109.50000 418.400000
3787 13045 5290 1 109.50000 418.400000
3787 13045 6623 1 109.50000 418.400000
3787 13045 6624 1 109.50000 418.400000
5290 13045 6623 1 109.50000 418.400000
5290 13045 6624 1 109.50000 418.400000
6623 13045 6624 1 109.50000 418.400000
6625 13046 6626 1 109.50000 418.400000
6625 13046 6627 1 109.50000 418.400000
6625 13046 6628 1 109.50000 418.400000
6626 13046 6627 1 109.50000 418.400000
6626 13046 6628 1 109.50000 418.400000
6627 13046 6628 1 109.50000 418.400000
6250 13047 6629 1 109.50000 418.400000
6250 13047 6630 1 109.50000 418.400000
6250 13047 9981 1 109.50000 418.400000
6629 13047 6630 1 109.50000 418.400000
6629 13047 9981 1 109.50000 418.400000
6630 13047 9981 1 109.50000 418.400000
4237 13048 5401 1 109.50000 418.400000
4237 13048 6631 1 109.50000 418.400000
4237 13048 6632 1 109.50000 418.400000
5401 13048 6631 1 109.50000 418.400000
5401 13048 6632 1 109.50000 418.400000
6631 13048 6632 1 109.50000 418.400000
2372 13049 2563 1 109.50000 418.400000
2372 13049 4729 1 109.50000 418.400000
2372 13049 5464 1 109.50000 418.400000
2563 13049 4729 1 109.50000 418.400000
2563 13049 5464 1 109.50000 418.400000
4729 13049 5464 1 109.50000 418.400000
4905 13050 6633 1 109.50000 418.400000
4905 13050 6634 1 109.50000 418.400000
4905 13050 6635 1 109.50000 418.400000
6633 13050 6634 1 109.50000 418.400000
6633 13050 6635 1 109.50000 418.400000
6634 13050 6635 1 109.50000 418.400000
6127 13051 6636 1 109.50000 418.400000
6127 13051 6637 1 109.50000 418.400000
6127 13051 6638 1 109.50000 418.400000
6636 13051 6637 1 109.50000 418.400000
6636 13051 6638 1 109.50000 418.400000
6637 13051 6638 1 109.50000 418.400000
1808 13052 6640 1 109.50000 418.400000
1808 13052 6641 1 109.50000 418.400000
1808 13052 6642 1 109.50000 418.400000
6640 13052 6641 1 109.50000 418.400000
6640 13052 6642 1 109.50000 418.400000
6641 13052 6642 1 109.50000 418.400000
2495 13053 5424 1 109.50000 418.400000
2495 13053 6643 1 109.50000 418.400000
2495 13053 11236 1 109.50000 418.400000
5424 13053 6643 1 109.50000 418.400000
5424 13053 11236 1 109.50000 418.400000
6643 13053 11236 1 109.50000 418.400000
5132 13054 6644 1 109.50000 418.400000
5132 13054 6645 1 109.50000 418.400000
5132 13054 6646 1 109.50000 418.400000
6644 13054 6645 1 109.50000 418.400000
6644 13054 6646 1 109.50000 418.400000
6645 13054 6646 1 109.50000 418.400000
6651 13055 6652 1 109.50000 418.400000
6651 13055 6653 1 109.50000 418.400000
6651 13055 6654 1 109.50000 418.400000
6652 13055 6653 1 109.50000 418.400000
6652 13055 6654 1 109.50000 418.400000
6653 13055 6654 1 109.50000 418.400000
4393 13056 6655 1 109.50000 418.400000
4393 13056 6656 1 109.50000 418.400000
4393 13056 6657 1 109.50000 418.400000
6655 13056 6656 1 109.50000 418.400000
6655 13056 6657 1 109.50000 418.400000
6656 13056 6657 1 109.50000 418.400000
4656 13057 6659 1 109.50000 418.400000
4656 13057 6660 1 109.50000 418.400000
4656 13057 6661 1 109.50000 418.400000
6659 13057 6660 1 109.50000 418.400000
6659 13057 6661 1 109.50000 418.400000
6660 13057 6661 1 109.50000 418.400000
185 13058 5640 1 109.50000 418.400000
185 13058 6662 1 109.50000 418.400000
185 13058 6663 1 109.50000 418.400000
5640 13058 6662 1 109.50000 418.400000
5640 13058 6663 1 109.50000 418.400000
6662 13058 6663 1 109.50000 418.400000
4861 13059 6535 1 109.50000 418.400000
4861 13059 6664 1 109.50000 418.400000
4861 13059 6665 1 109.50000 418.400000
6535 13059 6664 1 109.50000 418.400000
6535 13059 6665 1 109.50000 418.400000
6664 13059 6665 1 109.50000 418.400000
4206 13060 4239 1 109.50000 418.400000
4206 13060 6666 1 109.50000 418.400000
4206 13060 6667 1 109.50000 418.400000
4239 13060 6666 1 109.50000 418.400000
4239 13060 6667 1 109.50000 418.400000
6666 13060 6667 1 109.50000 418.400000
1800 13061 6668 1 109.50000 418.400000
1800 13061 6669 1 109.50000 418.400000
1800 13061 6670 1 109.50000 418.400000
6668 13061 6669 1 109.50000 418.400000
6668 13061 6670 1 109.50000 418.400000
6669 13061 6670 1 109.50000 418.400000
4703 13062 6457 1 109.50000 418.400000
4703 13062 6671 1 109.50000 418.400000
4703 13062 6672 1 109.50000 418.400000
6457 13062 6671 1 109.50000 418.400000
6457 13062 6672 1 109.50000 418.400000
6671 13062 6672 1 109.50000 418.400000
5397 13063 6673 1 109.50000 418.400000
5397 13063 6674 1 109.50000 418.400000
5397 13063 6675 1 109.50000 418.400000
6673 13063 6674 1 109.50000 418.400000
6673 13063 6675 1 109.50000 418.400000
6674 13063 6675 1 109.50000 418.400000
2787 13064 6676 1 109.50000 418.400000
2787 13064 6677 1 109.50000 418.400000
2787 13064 6678 1 109.50000 418.400000
6676 13064 6677 1 109.50000 418.400000
6676 13064 6678 1 109.50000 418.400000
6677 13064 6678 1 109.50000 418.400000
6679 13065 6680 1 109.50000 418.400000
6679 13065 6681 1 109.50000 418.400000
6679 13065 6682 1 109.50000 418.400000
6680 13065 6681 1 109.50000 418.400000
6680 13065 6682 1 109.50000 418.400000
6681 13065 6682 1 109.50000 418.400000
203 13066 4267 1 109.50000 418.400000
203 13066 4374 1 109.50000 418.400000
203 13066 6683 1 109.50000 418.400000
4267 13066 4374 1 109.50000 418.400000
4267 13066 6683 1 109.50000 418.400000
4374 13066 6683 1 109.50000 418.400000
2628 13067 4564 1 109.50000 418.400000
2628 13067 6133 1 109.50000 418.400000
2628 13067 6684 1 109.50000 418.400000
4564 13067 6133 1 109.50000 418.400000
4564 13067 6684 1 109.50000 418.400000
6133 13067 6684 1 109.50000 418.400000
915 13068 4839 1 109.50000 418.400000
915 13068 6685 1 109.50000 418.400000
915 13068 6686 1 109.50000 418.400000
4839 13068 6685 1 109.50000 418.400000
4839 13068 6686 1 109.50000 418.400000
6685 13068 6686 1 109.50000 418.400000
1603 13069 2059 1 109.50000 418.400000
1603 13069 5910 1 109.50000 418.400000
1603 13069 6687 1 109.50000 418.400000
2059 13069 5910 1 109.50000 418.400000
2059 13069 6687 1 109.50000 418.400000
5910 13069 6687 1 109.50000 418.400000
1109 13070 6688 1 109.50000 418.400000
1109 13070 6689 1 109.50000 418.400000
1109 13070 6690 1 109.50000 418.400000
6688 13070 6689 1 109.50000 418.400000
6688 13070 6690 1 109.50000 418.400000
6689 13070 6690 1 109.50000 418.400000
6691 13071 6692 1 109.50000 418.400000
6691 13071 6693 1 109.50000 418.400000
6691 13071 6694 1 109.50000 418.400000
6692 13071 6693 1 109.50000 418.400000
6692 13071 6694 1 109.50000 418.400000
6693 13071 6694 1 109.50000 418.400000
6695 13072 6696 1 109.50000 418.400000
6695 13072 6697 1 109.50000 418.400000
6695 13072 6698 1 109.50000 418.400000
6696 13072 6697 1 109.50000 418.400000
6696 13072 6698 1 109.50000 418.400000
6697 13072 6698 1 109.50000 418.400000
6699 13073 6700 1 109.50000 418.400000
6699 13073 6701 1 109.50000 418.400000
6699 13073 6702 1 109.50000 418.400000
6700 13073 6701 1 109.50000 418.400000
6700 13073 6702 1 109.50000 418.400000
6701 13073 6702 1 109.50000 418.400000
3616 13074 3665 1 109.50000 418.400000
3616 13074 4837 1 109.50000 418.400000
3616 13074 6703 1 109.50000 418.400000
3665 13074 4837 1 109.50000 418.400000
3665 13074 6703 1 109.50000 418.400000
4837 13074 6703 1 109.50000 418.400000
4583 13075 4584 1 109.50000 418.400000
4583 13075 6705 1 109.50000 418.400000
4583 13075 6706 1 109.50000 418.400000
4584 13075 6705 1 109.50000 418.400000
4584 13075 6706 1 109.50000 418.400000
6705 13075 6706 1 109.50000 418.400000
5319 13076 6216 1 109.50000 418.400000
5319 13076 6707 1 109.50000 418.400000
5319 13076 6708 1 109.50000 418.400000
6216 13076 6707 1 109.50000 418.400000
6216 13076 6708 1 109.50000 418.400000
6707 13076 6708 1 109.50000 418.400000
3935 13077 3936 1 109.50000 418.400000
3935 13077 6709 1 109.50000 418.400000
3935 13077 6710 1 109.50000 418.400000
3936 13077 6709 1 109.50000 418.400000
3936 13077 6710 1 109.50000 418.400000
6709 13077 6710 1 109.50000 418.400000
1733 13078 3990 1 109.50000 418.400000
1733 13078 5245 1 109.50000 418.400000
1733 13078 6711 1 109.50000 418.400000
3990 13078 5245 1 109.50000 418.400000
3990 13078 6711 1 109.50000 418.400000
5245 13078 6711 1 109.50000 418.400000
6712 13079 6713 1 109.50000 418.400000
6712 13079 6714 1 109.50000 418.400000
6712 13079 6715 1 109.50000 418.400000
6713 13079 6714 1 109.50000 418.400000
6713 13079 6715 1 109.50000 418.400000
6714 13079 6715 1 109.50000 418.400000
576 13080 1840 1 109.50000 418.400000
576 13080 2975 1 109.50000 418.400000
576 13080 6716 1 109.50000 418.400000
1840 13080 2975 1 109.50000 418.400000
1840 13080 6716 1 109.50000 418.400000
2975 13080 6716 1 109.50000 418.400000
6717 13081 6718 1 109.50000 418.400000
6717 13081 6719 1 109.50000 418.400000
6717 13081 6720 1 109.50000 418.400000
6718 13081 6719 1 109.50000 418.400000
6718 13081 6720 1 109.50000 418.400000
6719 13081 6720 1 109.50000 418.400000
3900 13082 5538 1 109.50000 418.400000
3900 13082 6593 1 109.50000 418.400000
3900 13082 6724 1 109.50000 418.400000
5538 13082 6593 1 109.50000 418.400000
5538 13082 6724 1 109.50000 418.400000
6593 13082 6724 1 109.50000 418.400000
2381 13083 3818 1 109.50000 418.400000
2381 13083 6727 1 109.50000 418.400000
2381 13083 6728 1 109.50000 418.400000
3818 13083 6727 1 109.50000 418.400000
3818 13083 6728 1 109.50000 418.400000
6727 13083 6728 1 109.50000 418.400000
2408 13084 6729 1 109.50000 418.400000
2408 13084 6730 1 109.50000 418.400000
2408 13084 6731 1 109.50000 418.400000
6729 13084 6730 1 109.50000 418.400000
6729 13084 6731 1 109.50000 418.400000
6730 13084 6731 1 109.50000 418.400000
2643 13085 4028 1 109.50000 418.400000
2643 13085 6732 1 109.50000 418.400000
2643 13085 6733 1 109.50000 418.400000
4028 13085 6732 1 109.50000 418.400000
4028 13085 6733 1 109.50000 418.400000
6732 13085 6733 1 109.50000 418.400000
3929 13086 5694 1 109.50000 418.400000
3929 13086 5695 1 109.50000 418.400000
3929 13086 6736 1 109.50000 418.400000
5694 13086 5695 1 109.50000 418.400000
5694 13086 6736 1 109.50000 418.400000
5695 13086 6736 1 109.50000 418.400000
659 13087 6738 1 109.50000 418.400000
659 13087 6739 1 109.50000 418.400000
659 13087 6740 1 109.50000 418.400000
6738 13087 6739 1 109.50000 418.400000
6738 13087 6740 1 109.50000 418.400000
6739 13087 6740 1 109.50000 418.400000
5734 13088 6743 1 109.50000 418.400000
5734 13088 6744 1 109.50000 418.400000
5734 13088 6745 1 109.50000 418.400000
6743 13088 6744 1 109.50000 418.400000
6743 13088 6745 1 109.50000 418.400000
6744 13088 6745 1 109.50000 418.400000
5794 13089 6522 1 109.50000 418.400000
5794 13089 6746 1 109.50000 418.400000
5794 13089 6747 1 109.50000 418.400000
6522 13089 6746 1 109.50000 418.400000
6522 13089 6747 1 109.50000 418.400000
6746 13089 6747 1 109.50000 418.400000
6748 13090 6749 1 109.50000 418.400000
6748 13090 6750 1 109.50000 418.400000
6748 13090 6751 1 109.50000 418.400000
6749 13090 6750 1 109.50000 418.400000
6749 13090 6751 1 109.50000 418.400000
6750 13090 6751 1 109.50000 418.400000
6752 13091 6753 1 109.50000 418.400000
6752 13091 6754 1 109.50000 418.400000
6752 13091 6755 1 109.50000 418.400000
6753 13091 6754 1 109.50000 418.400000
6753 13091 6755 1 109.50000 418.400000
6754 13091 6755 1 109.50000 418.400000
5390 13092 5765 1 109.50000 418.400000
5390 13092 6758 1 109.50000 418.400000
5390 13092 10518 1 109.50000 418.400000
5765 13092 6758 1 109.50000 418.400000
5765 13092 10518 1 109.50000 418.400000
6758 13092 10518 1 109.50000 418.400000
4778 13093 6759 1 109.50000 418.400000
4778 13093 6760 1 109.50000 418.400000
4778 13093 6761 1 109.50000 418.400000
6759 13093 6760 1 109.50000 418.400000
6759 13093 6761 1 109.50000 418.400000
6760 13093 6761 1 109.50000 418.400000
4128 13094 6764 1 109.50000 418.400000
4128 13094 7358 1 109.50000 418.400000
4128 13094 7359 1 109.50000 418.400000
6764 13094 7358 1 109.50000 418.400000
6764 13094 7359 1 109.50000 418.400000
7358 13094 7359 1 109.50000 418.400000
5916 13095 6766 1 109.50000 418.400000
5916 13095 6767 1 109.50000 418.400000
5916 13095 7446 1 109.50000 418.400000
6766 13095 6767 1 109.50000 418.400000
6766 13095 7446 1 109.50000 418.400000
6767 13095 7446 1 109.50000 418.400000
5986 13096 6768 1 109.50000 418.400000
5986 13096 6769 1 109.50000 418.400000
5986 13096 6770 1 109.50000 418.400000
6768 13096 6769 1 109.50000 418.400000
6768 13096 6770 1 109.50000 418.400000
6769 13096 6770 1 109.50000 418.400000
3342 13097 6771 1 109.50000 418.400000
3342 13097 6772 1 109.50000 418.400000
3342 13097 6773 1 109.50000 418.400000
6771 13097 6772 1 109.50000 418.400000
6771 13097 6773 1 109.50000 418.400000
6772 13097 6773 1 109.50000 418.400000
2553 13098 6774 1 109.50000 418.400000
2553 13098 6775 1 109.50000 418.400000
2553 13098 6776 1 109.50000 418.400000
6774 13098 6775 1 109.50000 418.400000
6774 13098 6776 1 109.50000 418.400000
6775 13098 6776 1 109.50000 418.400000
6398 13099 6400 1 109.50000 418.400000
6398 13099 6777 1 109.50000 418.400000
6398 13099 6779 1 109.50000 418.400000
6400 13099 6777 1 109.50000 418.400000
6400 13099 6779 1 109.50000 418.400000
6777 13099 6779 1 109.50000 418.400000
2134 13100 3702 1 109.50000 418.400000
2134 13100 6781 1 109.50000 418.400000
2134 13100 6782 1 109.50000 418.400000
3702 13100 6781 1 109.50000 418.400000
3702 13100 6782 1 109.50000 418.400000
6781 13100 6782 1 109.50000 418.400000
2625 13101 2627 1 109.50000 418.400000
2625 13101 6786 1 109.50000 418.400000
2625 13101 7373 1 109.50000 418.400000
2627 13101 6786 1 109.50000 418.400000
2627 13101 7373 1 109.50000 418.400000
6786 13101 7373 1 109.50000 418.400000
4569 13102 6788 1 109.50000 418.400000
4569 13102 6789 1 109.50000 418.400000
4569 13102 6790 1 109.50000 418.400000
6788 13102 6789 1 109.50000 418.400000
6788 13102 6790 1 109.50000 418.400000
6789 13102 6790 1 109.50000 418.400000
2948 13103 6791 1 109.50000 418.400000
2948 13103 6792 1 109.50000 418.400000
2948 13103 6793 1 109.50000 418.400000
6791 13103 6792 1 109.50000 418.400000
6791 13103 6793 1 109.50000 418.400000
6792 13103 6793 1 109.50000 418.400000
3712 13104 3714 1 109.50000 418.400000
3712 13104 3957 1 109.50000 418.400000
3712 13104 6795 1 109.50000 418.400000
3714 13104 3957 1 109.50000 418.400000
3714 13104 6795 1 109.50000 418.400000
3957 13104 6795 1 109.50000 418.400000
1633 13105 5232 1 109.50000 418.400000
1633 13105 6796 1 109.50000 418.400000
1633 13105 6797 1 109.50000 418.400000
5232 13105 6796 1 109.50000 418.400000
5232 13105 6797 1 109.50000 418.400000
6796 13105 6797 1 109.50000 418.400000
5051 13106 6798 1 109.50000 418.400000
5051 13106 6799 1 109.50000 418.400000
5051 13106 6800 1 109.50000 418.400000
6798 13106 6799 1 109.50000 418.400000
6798 13106 6800 1 109.50000 418.400000
6799 13106 6800 1 109.50000 418.400000
3294 13107 6801 1 109.50000 418.400000
3294 13107 6802 1 109.50000 418.400000
3294 13107 6803 1 109.50000 418.400000
6801 13107 6802 1 109.50000 418.400000
6801 13107 6803 1 109.50000 418.400000
6802 13107 6803 1 109.50000 418.400000
5917 13108 6804 1 109.50000 418.400000
5917 13108 6805 1 109.50000 418.400000
5917 13108 6806 1 109.50000 418.400000
6804 13108 6805 1 109.50000 418.400000
6804 13108 6806 1 109.50000 418.400000
6805 13108 6806 1 109.50000 418.400000
1693 13109 6807 1 109.50000 418.400000
1693 13109 6808 1 109.50000 418.400000
1693 13109 6809 1 109.50000 418.400000
6807 13109 6808 1 109.50000 418.400000
6807 13109 6809 1 109.50000 418.400000
6808 13109 6809 1 109.50000 418.400000
584 13110 3572 1 109.50000 418.400000
584 13110 3884 1 109.50000 418.400000
584 13110 5351 1 109.50000 418.400000
3572 13110 3884 1 109.50000 418.400000
3572 13110 5351 1 109.50000 418.400000
3884 13110 5351 1 109.50000 418.400000
3151 13111 4152 1 109.50000 418.400000
3151 13111 6349 1 109.50000 418.400000
3151 13111 6811 1 109.50000 418.400000
4152 13111 6349 1 109.50000 418.400000
4152 13111 6811 1 109.50000 418.400000
6349 13111 6811 1 109.50000 418.400000
3487 13112 4189 1 109.50000 418.400000
3487 13112 6423 1 109.50000 418.400000
3487 13112 6812 1 109.50000 418.400000
4189 13112 6423 1 109.50000 418.400000
4189 13112 6812 1 109.50000 418.400000
6423 13112 6812 1 109.50000 418.400000
935 13113 3522 1 109.50000 418.400000
935 13113 6813 1 109.50000 418.400000
935 13113 6814 1 109.50000 418.400000
3522 13113 6813 1 109.50000 418.400000
3522 13113 6814 1 109.50000 418.400000
6813 13113 6814 1 109.50000 418.400000
3474 13114 3873 1 109.50000 418.400000
3474 13114 6815 1 109.50000 418.400000
3474 13114 6816 1 109.50000 418.400000
3873 13114 6815 1 109.50000 418.400000
3873 13114 6816 1 109.50000 418.400000
6815 13114 6816 1 109.50000 418.400000
4104 13115 6354 1 109.50000 418.400000
4104 13115 6817 1 109.50000 418.400000
4104 13115 6818 1 109.50000 418.400000
6354 13115 6817 1 109.50000 418.400000
6354 13115 6818 1 109.50000 418.400000
6817 13115 6818 1 109.50000 418.400000
6819 13116 6820 1 109.50000 418.400000
6819 13116 6821 1 109.50000 418.400000
6819 13116 6822 1 109.50000 418.400000
6820 13116 6821 1 109.50000 418.400000
6820 13116 6822 1 109.50000 418.400000
6821 13116 6822 1 109.50000 418.400000
1289 13117 1648 1 109.50000 418.400000
1289 13117 3480 1 109.50000 418.400000
1289 13117 3577 1 109.50000 418.400000
1648 13117 3480 1 109.50000 418.400000
1648 13117 3577 1 109.50000 418.400000
3480 13117 3577 1 109.50000 418.400000
5229 13118 6825 1 109.50000 418.400000
5229 13118 6826 1 109.50000 418.400000
5229 13118 6827 1 109.50000 418.400000
6825 13118 6826 1 109.50000 418.400000
6825 13118 6827 1 109.50000 418.400000
6826 13118 6827 1 109.50000 418.400000
4949 13119 6828 1 109.50000 418.400000
4949 13119 6829 1 109.50000 418.400000
4949 13119 6830 1 109.50000 418.400000
6828 13119 6829 1 109.50000 418.400000
6828 13119 6830 1 109.50000 418.400000
6829 13119 6830 1 109.50000 418.400000
478 13120 3146 1 109.50000 418.400000
478 13120 6831 1 109.50000 418.400000
478 13120 6832 1 109.50000 418.400000
3146 13120 6831 1 109.50000 418.400000
3146 13120 6832 1 109.50000 418.400000
6831 13120 6832 1 109.50000 418.400000
5824 13121 6502 1 109.50000 418.400000
5824 13121 6833 1 109.50000 418.400000
5824 13121 6834 1 109.50000 418.400000
6502 13121 6833 1 109.50000 418.400000
6502 13121 6834 1 109.50000 418.400000
6833 13121 6834 1 109.50000 418.400000
6214 13122 6835 1 109.50000 418.400000
6214 13122 6837 1 109.50000 418.400000
6214 13122 7878 1 109.50000 418.400000
6835 13122 6837 1 109.50000 418.400000
6835 13122 7878 1 109.50000 418.400000
6837 13122 7878 1 109.50000 418.400000
716 13123 2640 1 109.50000 418.400000
716 13123 6838 1 109.50000 418.400000
716 13123 6839 1 109.50000 418.400000
2640 13123 6838 1 109.50000 418.400000
2640 13123 6839 1 109.50000 418.400000
6838 13123 6839 1 109.50000 418.400000
2171 13124 2984 1 109.50000 418.400000
2171 13124 3859 1 109.50000 418.400000
2171 13124 6840 1 109.50000 418.400000
2984 13124 3859 1 109.50000 418.400000
2984 13124 6840 1 109.50000 418.400000
3859 13124 6840 1 109.50000 418.400000
993 13125 6802 1 109.50000 418.400000
993 13125 6841 1 109.50000 418.400000
993 13125 6842 1 109.50000 418.400000
6802 13125 6841 1 109.50000 418.400000
6802 13125 6842 1 109.50000 418.400000
6841 13125 6842 1 109.50000 418.400000
4297 13126 5407 1 109.50000 418.400000
4297 13126 6843 1 109.50000 418.400000
4297 13126 6844 1 109.50000 418.400000
5407 13126 6843 1 109.50000 418.400000
5407 13126 6844 1 109.50000 418.400000
6843 13126 6844 1 109.50000 418.400000
6845 13127 6846 1 109.50000 418.400000
6845 13127 6847 1 109.50000 418.400000
6845 13127 6848 1 109.50000 418.400000
6846 13127 6847 1 109.50000 418.400000
6846 13127 6848 1 109.50000 418.400000
6847 13127 6848 1 109.50000 418.400000
3871 13128 6849 1 109.50000 418.400000
3871 13128 6850 1 109.50000 418.400000
3871 13128 6851 1 109.50000 418.400000
6849 13128 6850 1 109.50000 418.400000
6849 13128 6851 1 109.50000 418.400000
6850 13128 6851 1 109.50000 418.400000
1981 13129 3762 1 109.50000 418.400000
1981 13129 6852 1 109.50000 418.400000
1981 13129 6853 1 109.50000 418.400000
3762 13129 6852 1 109.50000 418.400000
3762 13129 6853 1 109.50000 418.400000
6852 13129 6853 1 109.50000 418.400000
3379 13130 4995 1 109.50000 418.400000
3379 13130 6854 1 109.50000 418.400000
3379 13130 6855 1 109.50000 418.400000
4995 13130 6854 1 109.50000 418.400000
4995 13130 6855 1 109.50000 418.400000
6854 13130 6855 1 109.50000 418.400000
6856 13131 6857 1 109.50000 418.400000
6856 13131 6858 1 109.50000 418.400000
6856 13131 6859 1 109.50000 418.400000
6857 13131 6858 1 109.50000 418.400000
6857 13131 6859 1 109.50000 418.400000
6858 13131 6859 1 109.50000 418.400000
3289 13132 3937 1 109.50000 418.400000
3289 13132 6860 1 109.50000 418.400000
3289 13132 6862 1 109.50000 418.400000
3937 13132 6860 1 109.50000 418.400000
3937 13132 6862 1 109.50000 418.400000
6860 13132 6862 1 109.50000 418.400000
2575 13133 2600 1 109.50000 418.400000
2575 13133 6188 1 109.50000 418.400000
2575 13133 6863 1 109.50000 418.400000
2600 13133 6188 1 109.50000 418.400000
2600 13133 6863 1 109.50000 418.400000
6188 13133 6863 1 109.50000 418.400000
4228 13134 6864 1 109.50000 418.400000
4228 13134 6865 1 109.50000 418.400000
4228 13134 6866 1 109.50000 418.400000
6864 13134 6865 1 109.50000 418.400000
6864 13134 6866 1 109.50000 418.400000
6865 13134 6866 1 109.50000 418.400000
711 13135 6868 1 109.50000 418.400000
711 13135 6869 1 109.50000 418.400000
711 13135 8735 1 109.50000 418.400000
6868 13135 6869 1 109.50000 418.400000
6868 13135 8735 1 109.50000 418.400000
6869 13135 8735 1 109.50000 418.400000
4859 13136 5202 1 109.50000 418.400000
4859 13136 6870 1 109.50000 418.400000
4859 13136 6871 1 109.50000 418.400000
5202 13136 6870 1 109.50000 418.400000
5202 13136 6871 1 109.50000 418.400000
6870 13136 6871 1 109.50000 418.400000
5408 13137 6872 1 109.50000 418.400000
5408 13137 6873 1 109.50000 418.400000
5408 13137 6874 1 109.50000 418.400000
6872 13137 6873 1 109.50000 418.400000
6872 13137 6874 1 109.50000 418.400000
6873 13137 6874 1 109.50000 418.400000
1888 13138 6875 1 109.50000 418.400000
1888 13138 6876 1 109.50000 418.400000
1888 13138 6877 1 109.50000 418.400000
6875 13138 6876 1 109.50000 418.400000
6875 13138 6877 1 109.50000 418.400000
6876 13138 6877 1 109.50000 418.400000
3199 13139 3273 1 109.50000 418.400000
3199 13139 6878 1 109.50000 418.400000
3199 13139 6879 1 109.50000 418.400000
3273 13139 6878 1 109.50000 418.400000
3273 13139 6879 1 109.50000 418.400000
6878 13139 6879 1 109.50000 418.400000
6020 13140 6880 1 109.50000 418.400000
6020 13140 6881 1 109.50000 418.400000
6020 13140 6882 1 109.50000 418.400000
6880 13140 6881 1 109.50000 418.400000
6880 13140 6882 1 109.50000 418.400000
6881 13140 6882 1 109.50000 418.400000
2781 13141 6544 1 109.50000 418.400000
2781 13141 6883 1 109.50000 418.400000
2781 13141 6884 1 109.50000 418.400000
6544 13141 6883 1 109.50000 418.400000
6544 13141 6884 1 109.50000 418.400000
6883 13141 6884 1 109.50000 418.400000
462 13142 3890 1 109.50000 418.400000
462 13142 6885 1 109.50000 418.400000
462 13142 6886 1 109.50000 418.400000
3890 13142 6885 1 109.50000 418.400000
3890 13142 6886 1 109.50000 418.400000
6885 13142 6886 1 109.50000 418.400000
1391 13143 3797 1 109.50000 418.400000
1391 13143 3867 1 109.50000 418.400000
1391 13143 6887 1 109.50000 418.400000
3797 13143 3867 1 109.50000 418.400000
3797 13143 6887 1 109.50000 418.400000
3867 13143 6887 1 109.50000 418.400000
1315 13144 1473 1 109.50000 418.400000
1315 13144 4526 1 109.50000 418.400000
1315 13144 6888 1 109.50000 418.400000
1473 13144 4526 1 109.50000 418.400000
1473 13144 6888 1 109.50000 418.400000
4526 13144 6888 1 109.50000 418.400000
3371 13145 6889 1 109.50000 418.400000
3371 13145 6890 1 109.50000 418.400000
3371 13145 6961 1 109.50000 418.400000
6889 13145 6890 1 109.50000 418.400000
6889 13145 6961 1 109.50000 418.400000
6890 13145 6961 1 109.50000 418.400000
2554 13146 5964 1 109.50000 418.400000
2554 13146 6891 1 109.50000 418.400000
2554 13146 6892 1 109.50000 418.400000
5964 13146 6891 1 109.50000 418.400000
5964 13146 6892 1 109.50000 418.400000
6891 13146 6892 1 109.50000 418.400000
3012 13147 3719 1 109.50000 418.400000
3012 13147 6893 1 109.50000 418.400000
3012 13147 6894 1 109.50000 418.400000
3719 13147 6893 1 109.50000 418.400000
3719 13147 6894 1 109.50000 418.400000
6893 13147 6894 1 109.50000 418.400000
6895 13148 6896 1 109.50000 418.400000
6895 13148 6898 1 109.50000 418.400000
6895 13148 10480 1 109.50000 418.400000
6896 13148 6898 1 109.50000 418.400000
6896 13148 10480 1 109.50000 418.400000
6898 13148 10480 1 109.50000 418.400000
5922 13149 6902 1 109.50000 418.400000
5922 13149 6903 1 109.50000 418.400000
5922 13149 6904 1 109.50000 418.400000
6902 13149 6903 1 109.50000 418.400000
6902 13149 6904 1 109.50000 418.400000
6903 13149 6904 1 109.50000 418.400000
3181 13150 4359 1 109.50000 418.400000
3181 13150 5431 1 109.50000 418.400000
3181 13150 6905 1 109.50000 418.400000
4359 13150 5431 1 109.50000 418.400000
4359 13150 6905 1 109.50000 418.400000
5431 13150 6905 1 109.50000 418.400000
6906 13151 6907 1 109.50000 418.400000
6906 13151 6908 1 109.50000 418.400000
6906 13151 6909 1 109.50000 418.400000
6907 13151 6908 1 109.50000 418.400000
6907 13151 6909 1 109.50000 418.400000
6908 13151 6909 1 109.50000 418.400000
3330 13152 5739 1 109.50000 418.400000
3330 13152 6697 1 109.50000 418.400000
3330 13152 6910 1 109.50000 418.400000
5739 13152 6697 1 109.50000 418.400000
5739 13152 6910 1 109.50000 418.400000
6697 13152 6910 1 109.50000 418.400000
4895 13153 6368 1 109.50000 418.400000
4895 13153 6911 1 109.50000 418.400000
4895 13153 6912 1 109.50000 418.400000
6368 13153 6911 1 109.50000 418.400000
6368 13153 6912 1 109.50000 418.400000
6911 13153 6912 1 109.50000 418.400000
2029 13154 6913 1 109.50000 418.400000
2029 13154 6914 1 109.50000 418.400000
2029 13154 6915 1 109.50000 418.400000
6913 13154 6914 1 109.50000 418.400000
6913 13154 6915 1 109.50000 418.400000
6914 13154 6915 1 109.50000 418.400000
6476 13155 6918 1 109.50000 418.400000
6476 13155 6919 1 109.50000 418.400000
6476 13155 6920 1 109.50000 418.400000
6918 13155 6919 1 109.50000 418.400000
6918 13155 6920 1 109.50000 418.400000
6919 13155 6920 1 109.50000 418.400000
6202 13156 6922 1 109.50000 418.400000
6202 13156 6923 1 109.50000 418.400000
6202 13156 7506 1 109.50000 418.400000
6922 13156 6923 1 109.50000 418.400000
6922 13156 7506 1 109.50000 418.400000
6923 13156 7506 1 109.50000 418.400000
391 13157 2238 1 109.50000 418.400000
391 13157 3325 1 109.50000 418.400000
391 13157 6925 1 109.50000 418.400000
2238 13157 3325 1 109.50000 418.400000
2238 13157 6925 1 109.50000 418.400000
3325 13157 6925 1 109.50000 418.400000
4609 13158 6927 1 109.50000 418.400000
4609 13158 6928 1 109.50000 418.400000
4609 13158 6929 1 109.50000 418.400000
6927 13158 6928 1 109.50000 418.400000
6927 13158 6929 1 109.50000 418.400000
6928 13158 6929 1 109.50000 418.400000
1163 13159 2229 1 109.50000 418.400000
1163 13159 2661 1 109.50000 418.400000
1163 13159 6930 1 109.50000 418.400000
2229 13159 2661 1 109.50000 418.400000
2229 13159 6930 1 109.50000 418.400000
2661 13159 6930 1 109.50000 418.400000
2278 13160 6831 1 109.50000 418.400000
2278 13160 6933 1 109.50000 418.400000
2278 13160 6934 1 109.50000 418.400000
6831 13160 6933 1 109.50000 418.400000
6831 13160 6934 1 109.50000 418.400000
6933 13160 6934 1 109.50000 418.400000
5716 13161 6935 1 109.50000 418.400000
5716 13161 6936 1 109.50000 418.400000
5716 13161 6937 1 109.50000 418.400000
6935 13161 6936 1 109.50000 418.400000
6935 13161 6937 1 109.50000 418.400000
6936 13161 6937 1 109.50000 418.400000
6655 13162 6938 1 109.50000 418.400000
6655 13162 6939 1 109.50000 418.400000
6655 13162 6940 1 109.50000 418.400000
6938 13162 6939 1 109.50000 418.400000
6938 13162 6940 1 109.50000 418.400000
6939 13162 6940 1 109.50000 418.400000
2645 13163 6941 1 109.50000 418.400000
2645 13163 6942 1 109.50000 418.400000
2645 13163 6943 1 109.50000 418.400000
6941 13163 6942 1 109.50000 418.400000
6941 13163 6943 1 109.50000 418.400000
6942 13163 6943 1 109.50000 418.400000
5433 13164 5878 1 109.50000 418.400000
5433 13164 6944 1 109.50000 418.400000
5433 13164 6945 1 109.50000 418.400000
5878 13164 6944 1 109.50000 418.400000
5878 13164 6945 1 109.50000 418.400000
6944 13164 6945 1 109.50000 418.400000
3852 13165 5201 1 109.50000 418.400000
3852 13165 6946 1 109.50000 418.400000
3852 13165 6947 1 109.50000 418.400000
5201 13165 6946 1 109.50000 418.400000
5201 13165 6947 1 109.50000 418.400000
6946 13165 6947 1 109.50000 418.400000
1962 13166 6950 1 109.50000 418.400000
1962 13166 10032 1 109.50000 418.400000
1962 13166 11249 1 109.50000 418.400000
6950 13166 10032 1 109.50000 418.400000
6950 13166 11249 1 109.50000 418.400000
10032 13166 11249 1 109.50000 418.400000
6951 13167 6952 1 109.50000 418.400000
6951 13167 6953 1 109.50000 418.400000
6951 13167 6954 1 109.50000 418.400000
6952 13167 6953 1 109.50000 418.400000
6952 13167 6954 1 109.50000 418.400000
6953 13167 6954 1 109.50000 418.400000
624 13168 6955 1 109.50000 418.400000
624 13168 6956 1 109.50000 418.400000
624 13168 6957 1 109.50000 418.400000
6955 13168 6956 1 109.50000 418.400000
6955 13168 6957 1 109.50000 418.400000
6956 13168 6957 1 109.50000 418.400000
2226 13169 4100 1 109.50000 418.400000
2226 13169 4101 1 109.50000 418.400000
2226 13169 6958 1 109.50000 418.400000
4100 13169 4101 1 109.50000 418.400000
4100 13169 6958 1 109.50000 418.400000
4101 13169 6958 1 109.50000 418.400000
2314 13170 2362 1 109.50000 418.400000
2314 13170 2369 1 109.50000 418.400000
2314 13170 6960 1 109.50000 418.400000
2362 13170 2369 1 109.50000 418.400000
2362 13170 6960 1 109.50000 418.400000
2369 13170 6960 1 109.50000 418.400000
2637 13171 6962 1 109.50000 418.400000
2637 13171 6963 1 109.50000 418.400000
2637 13171 7739 1 109.50000 418.400000
6962 13171 6963 1 109.50000 418.400000
6962 13171 7739 1 109.50000 418.400000
6963 13171 7739 1 109.50000 418.400000
4912 13172 6966 1 109.50000 418.400000
4912 13172 6967 1 109.50000 418.400000
4912 13172 8893 1 109.50000 418.400000
6966 13172 6967 1 109.50000 418.400000
6966 13172 8893 1 109.50000 418.400000
6967 13172 8893 1 109.50000 418.400000
1829 13173 4922 1 109.50000 418.400000
1829 13173 5163 1 109.50000 418.400000
1829 13173 6968 1 109.50000 418.400000
4922 13173 5163 1 109.50000 418.400000
4922 13173 6968 1 109.50000 418.400000
5163 13173 6968 1 109.50000 418.400000
2510 13174 3728 1 109.50000 418.400000
2510 13174 3729 1 109.50000 418.400000
2510 13174 6970 1 109.50000 418.400000
3728 13174 3729 1 109.50000 418.400000
3728 13174 6970 1 109.50000 418.400000
3729 13174 6970 1 109.50000 418.400000
1723 13175 6972 1 109.50000 418.400000
1723 13175 6973 1 109.50000 418.400000
1723 13175 6974 1 109.50000 418.400000
6972 13175 6973 1 109.50000 418.400000
6972 13175 6974 1 109.50000 418.400000
6973 13175 6974 1 109.50000 418.400000
6096 13176 6975 1 109.50000 418.400000
6096 13176 6976 1 109.50000 418.400000
6096 13176 6977 1 109.50000 418.400000
6975 13176 6976 1 109.50000 418.400000
6975 13176 6977 1 109.50000 418.400000
6976 13176 6977 1 109.50000 418.400000
5802 13177 6979 1 109.50000 418.400000
5802 13177 6980 1 109.50000 418.400000
5802 13177 6981 1 109.50000 418.400000
6979 13177 6980 1 109.50000 418.400000
6979 13177 6981 1 109.50000 418.400000
6980 13177 6981 1 109.50000 418.400000
5422 13178 6527 1 109.50000 418.400000
5422 13178 6982 1 109.50000 418.400000
5422 13178 6983 1 109.50000 418.400000
6527 13178 6982 1 109.50000 418.400000
6527 13178 6983 1 109.50000 418.400000
6982 13178 6983 1 109.50000 418.400000
2728 13179 6984 1 109.50000 418.400000
2728 13179 6985 1 109.50000 418.400000
2728 13179 6986 1 109.50000 418.400000
6984 13179 6985 1 109.50000 418.400000
6984 13179 6986 1 109.50000 418.400000
6985 13179 6986 1 109.50000 418.400000
2470 13180 6987 1 109.50000 418.400000
2470 13180 6988 1 109.50000 418.400000
2470 13180 10625 1 109.50000 418.400000
6987 13180 6988 1 109.50000 418.400000
6987 13180 10625 1 109.50000 418.400000
6988 13180 10625 1 109.50000 418.400000
5485 13181 6676 1 109.50000 418.400000
5485 13181 6989 1 109.50000 418.400000
5485 13181 6990 1 109.50000 418.400000
6676 13181 6989 1 109.50000 418.400000
6676 13181 6990 1 109.50000 418.400000
6989 13181 6990 1 109.50000 418.400000
1085 13182 2907 1 109.50000 418.400000
1085 13182 6991 1 109.50000 418.400000
1085 13182 6992 1 109.50000 418.400000
2907 13182 6991 1 109.50000 418.400000
2907 13182 6992 1 109.50000 418.400000
6991 13182 6992 1 109.50000 418.400000
573 13183 2760 1 109.50000 418.400000
573 13183 6993 1 109.50000 418.400000
573 13183 6994 1 109.50000 418.400000
2760 13183 6993 1 109.50000 418.400000
2760 13183 6994 1 109.50000 418.400000
6993 13183 6994 1 109.50000 418.400000
4036 13184 4254 1 109.50000 418.400000
4036 13184 6995 1 109.50000 418.400000
4036 13184 6996 1 109.50000 418.400000
4254 13184 6995 1 109.50000 418.400000
4254 13184 6996 1 109.50000 418.400000
6995 13184 6996 1 109.50000 418.400000
1688 13185 2617 1 109.50000 418.400000
1688 13185 6691 1 109.50000 418.400000
1688 13185 6997 1 109.50000 418.400000
2617 13185 6691 1 109.50000 418.400000
2617 13185 6997 1 109.50000 418.400000
6691 13185 6997 1 109.50000 418.400000
228 13186 3445 1 109.50000 418.400000
228 13186 6998 1 109.50000 418.400000
228 13186 6999 1 109.50000 418.400000
3445 13186 6998 1 109.50000 418.400000
3445 13186 6999 1 109.50000 418.400000
6998 13186 6999 1 109.50000 418.400000
172 13187 2673 1 109.50000 418.400000
172 13187 5088 1 109.50000 418.400000
172 13187 7000 1 109.50000 418.400000
2673 13187 5088 1 109.50000 418.400000
2673 13187 7000 1 109.50000 418.400000
5088 13187 7000 1 109.50000 418.400000
510 13188 3268 1 109.50000 418.400000
510 13188 6257 1 109.50000 418.400000
510 13188 7002 1 109.50000 418.400000
3268 13188 6257 1 109.50000 418.400000
3268 13188 7002 1 109.50000 418.400000
6257 13188 7002 1 109.50000 418.400000
2660 13189 7003 1 109.50000 418.400000
2660 13189 7004 1 109.50000 418.400000
2660 13189 7005 1 109.50000 418.400000
7003 13189 7004 1 109.50000 418.400000
7003 13189 7005 1 109.50000 418.400000
7004 13189 7005 1 109.50000 418.400000
4630 13190 5386 1 109.50000 418.400000
4630 13190 6732 1 109.50000 418.400000
4630 13190 7006 1 109.50000 418.400000
5386 13190 6732 1 109.50000 418.400000
5386 13190 7006 1 109.50000 418.400000
6732 13190 7006 1 109.50000 418.400000
5710 13191 7007 1 109.50000 418.400000
5710 13191 7008 1 109.50000 418.400000
5710 13191 7009 1 109.50000 418.400000
7007 13191 7008 1 109.50000 418.400000
7007 13191 7009 1 109.50000 418.400000
7008 13191 7009 1 109.50000 418.400000
1822 13192 7010 1 109.50000 418.400000
1822 13192 7011 1 109.50000 418.400000
1822 13192 7012 1 109.50000 418.400000
7010 13192 7011 1 109.50000 418.400000
7010 13192 7012 1 109.50000 418.400000
7011 13192 7012 1 109.50000 418.400000
7013 13193 7014 1 109.50000 418.400000
7013 13193 7015 1 109.50000 418.400000
7013 13193 7016 1 109.50000 418.400000
7014 13193 7015 1 109.50000 418.400000
7014 13193 7016 1 109.50000 418.400000
7015 13193 7016 1 109.50000 418.400000
2319 13194 4412 1 109.50000 418.400000
2319 13194 7017 1 109.50000 418.400000
2319 13194 7018 1 109.50000 418.400000
4412 13194 7017 1 109.50000 418.400000
4412 13194 7018 1 109.50000 418.400000
7017 13194 7018 1 109.50000 418.400000
164 13195 7021 1 109.50000 418.400000
164 13195 7022 1 109.50000 418.400000
164 13195 7023 1 109.50000 418.400000
7021 13195 7022 1 109.50000 418.400000
7021 13195 7023 1 109.50000 418.400000
7022 13195 7023 1 109.50000 418.400000
7024 13196 7025 1 109.50000 418.400000
7024 13196 7026 1 109.50000 418.400000
7024 13196 7027 1 109.50000 418.400000
7025 13196 7026 1 109.50000 418.400000
7025 13196 7027 1 109.50000 418.400000
7026 13196 7027 1 109.50000 418.400000
7028 13197 7029 1 109.50000 418.400000
7028 13197 7030 1 109.50000 418.400000
7028 13197 7031 1 109.50000 418.400000
7029 13197 7030 1 109.50000 418.400000
7029 13197 7031 1 109.50000 418.400000
7030 13197 7031 1 109.50000 418.400000
707 13198 7032 1 109.50000 418.400000
707 13198 7033 1 109.50000 418.400000
707 13198 7034 1 109.50000 418.400000
7032 13198 7033 1 109.50000 418.400000
7032 13198 7034 1 109.50000 418.400000
7033 13198 7034 1 109.50000 418.400000
1111 13199 7035 1 109.50000 418.400000
1111 13199 7036 1 109.50000 418.400000
1111 13199 7037 1 109.50000 418.400000
7035 13199 7036 1 109.50000 418.400000
7035 13199 7037 1 109.50000 418.400000
7036 13199 7037 1 109.50000 418.400000
7038 13200 7039 1 109.50000 418.400000
7038 13200 7040 1 109.50000 418.400000
7038 13200 7041 1 109.50000 418.400000
7039 13200 7040 1 109.50000 418.400000
7039 13200 7041 1 109.50000 418.400000
7040 13200 7041 1 109.50000 418.400000
4093 13201 5973 1 109.50000 418.400000
4093 13201 7042 1 109.50000 418.400000
4093 13201 7043 1 109.50000 418.400000
5973 13201 7042 1 109.50000 418.400000
5973 13201 7043 1 109.50000 418.400000
7042 13201 7043 1 109.50000 418.400000
2647 13202 7044 1 109.50000 418.400000
2647 13202 7045 1 109.50000 418.400000
2647 13202 7046 1 109.50000 418.400000
7044 13202 7045 1 109.50000 418.400000
7044 13202 7046 1 109.50000 418.400000
7045 13202 7046 1 109.50000 418.400000
7047 13203 7048 1 109.50000 418.400000
7047 13203 7049 1 109.50000 418.400000
7047 13203 7050 1 109.50000 418.400000
7048 13203 7049 1 109.50000 418.400000
7048 13203 7050 1 109.50000 418.400000
7049 13203 7050 1 109.50000 418.400000
279 13204 2122 1 109.50000 418.400000
279 13204 2680 1 109.50000 418.400000
279 13204 7051 1 109.50000 418.400000
2122 13204 2680 1 109.50000 418.400000
2122 13204 7051 1 109.50000 418.400000
2680 13204 7051 1 109.50000 418.400000
3647 13205 5530 1 109.50000 418.400000
3647 13205 7053 1 109.50000 418.400000
3647 13205 7054 1 109.50000 418.400000
5530 13205 7053 1 109.50000 418.400000
5530 13205 7054 1 109.50000 418.400000
7053 13205 7054 1 109.50000 418.400000
1657 13206 1923 1 109.50000 418.400000
1657 13206 2105 1 109.50000 418.400000
1657 13206 7055 1 109.50000 418.400000
1923 13206 2105 1 109.50000 418.400000
1923 13206 7055 1 109.50000 418.400000
2105 13206 7055 1 109.50000 418.400000
157 13207 6678 1 109.50000 418.400000
157 13207 7056 1 109.50000 418.400000
157 13207 7057 1 109.50000 418.400000
6678 13207 7056 1 109.50000 418.400000
6678 13207 7057 1 109.50000 418.400000
7056 13207 7057 1 109.50000 418.400000
4498 13208 7058 1 109.50000 418.400000
4498 13208 7059 1 109.50000 418.400000
4498 13208 7060 1 109.50000 418.400000
7058 13208 7059 1 109.50000 418.400000
7058 13208 7060 1 109.50000 418.400000
7059 13208 7060 1 109.50000 418.400000
7061 13209 7062 1 109.50000 418.400000
7061 13209 7064 1 109.50000 418.400000
7061 13209 9061 1 109.50000 418.400000
7062 13209 7064 1 109.50000 418.400000
7062 13209 9061 1 109.50000 418.400000
7064 13209 9061 1 109.50000 418.400000
7065 13210 7066 1 109.50000 418.400000
7065 13210 11227 1 109.50000 418.400000
7065 13210 11239 1 109.50000 418.400000
7066 13210 11227 1 109.50000 418.400000
7066 13210 11239 1 109.50000 418.400000
11227 13210 11239 1 109.50000 418.400000
7067 13211 7068 1 109.50000 418.400000
7067 13211 7069 1 109.50000 418.400000
7067 13211 7070 1 109.50000 418.400000
7068 13211 7069 1 109.50000 418.400000
7068 13211 7070 1 109.50000 418.400000
7069 13211 7070 1 109.50000 418.400000
5443 13212 7071 1 109.50000 418.400000
5443 13212 7072 1 109.50000 418.400000
5443 13212 7073 1 109.50000 418.400000
7071 13212 7072 1 109.50000 418.400000
7071 13212 7073 1 109.50000 418.400000
7072 13212 7073 1 109.50000 418.400000
2551 13213 7074 1 109.50000 418.400000
2551 13213 7075 1 109.50000 418.400000
2551 13213 7076 1 109.50000 418.400000
7074 13213 7075 1 109.50000 418.400000
7074 13213 7076 1 109.50000 418.400000
7075 13213 7076 1 109.50000 418.400000
2260 13214 6065 1 109.50000 418.400000
2260 13214 7077 1 109.50000 418.400000
2260 13214 7078 1 109.50000 418.400000
6065 13214 7077 1 109.50000 418.400000
6065 13214 7078 1 109.50000 418.400000
7077 13214 7078 1 109.50000 418.400000
7079 13215 7080 1 109.50000 418.400000
7079 13215 7081 1 109.50000 418.400000
7079 13215 9335 1 109.50000 418.400000
7080 13215 7081 1 109.50000 418.400000
7080 13215 9335 1 109.50000 418.400000
7081 13215 9335 1 109.50000 418.400000
959 13216 3400 1 109.50000 418.400000
959 13216 7083 1 109.50000 418.400000
959 13216 7084 1 109.50000 418.400000
3400 13216 7083 1 109.50000 418.400000
3400 13216 7084 1 109.50000 418.400000
7083 13216 7084 1 109.50000 418.400000
4366 13217 6395 1 109.50000 418.400000
4366 13217 7085 1 109.50000 418.400000
4366 13217 7086 1 109.50000 418.400000
6395 13217 7085 1 109.50000 418.400000
6395 13217 7086 1 109.50000 418.400000
7085 13217 7086 1 109.50000 418.400000
5589 13218 7087 1 109.50000 418.400000
5589 13218 7088 1 109.50000 418.400000
5589 13218 7089 1 109.50000 418.400000
7087 13218 7088 1 109.50000 418.400000
7087 13218 7089 1 109.50000 418.400000
7088 13218 7089 1 109.50000 418.400000
7090 13219 7092 1 109.50000 418.400000
7090 13219 7093 1 109.50000 418.400000
7090 13219 9130 1 109.50000 418.400000
7092 13219 7093 1 109.50000 418.400000
7092 13219 9130 1 109.50000 418.400000
7093 13219 9130 1 109.50000 418.400000
243 13220 3387 1 109.50000 418.400000
243 13220 6097 1 109.50000 418.400000
243 13220 7094 1 109.50000 418.400000
3387 13220 6097 1 109.50000 418.400000
3387 13220 7094 1 109.50000 418.400000
6097 13220 7094 1 109.50000 418.400000
2149 13221 7095 1 109.50000 418.400000
2149 13221 7096 1 109.50000 418.400000
2149 13221 7097 1 109.50000 418.400000
7095 13221 7096 1 109.50000 418.400000
7095 13221 7097 1 109.50000 418.400000
7096 13221 7097 1 109.50000 418.400000
5136 13222 6810 1 109.50000 418.400000
5136 13222 7099 1 109.50000 418.400000
5136 13222 7100 1 109.50000 418.400000
6810 13222 7099 1 109.50000 418.400000
6810 13222 7100 1 109.50000 418.400000
7099 13222 7100 1 109.50000 418.400000
433 13223 4878 1 109.50000 418.400000
433 13223 7101 1 109.50000 418.400000
433 13223 7102 1 109.50000 418.400000
4878 13223 7101 1 109.50000 418.400000
4878 13223 7102 1 109.50000 418.400000
7101 13223 7102 1 109.50000 418.400000
2870 13224 4096 1 109.50000 418.400000
2870 13224 7103 1 109.50000 418.400000
2870 13224 7104 1 109.50000 418.400000
4096 13224 7103 1 109.50000 418.400000
4096 13224 7104 1 109.50000 418.400000
7103 13224 7104 1 109.50000 418.400000
2348 13225 7105 1 109.50000 418.400000
2348 13225 7106 1 109.50000 418.400000
2348 13225 7107 1 109.50000 418.400000
7105 13225 7106 1 109.50000 418.400000
7105 13225 7107 1 109.50000 418.400000
7106 13225 7107 1 109.50000 418.400000
7108 13226 7109 1 109.50000 418.400000
7108 13226 7110 1 109.50000 418.400000
7108 13226 7111 1 109.50000 418.400000
7109 13226 7110 1 109.50000 418.400000
7109 13226 7111 1 109.50000 418.400000
7110 13226 7111 1 109.50000 418.400000
5876 13227 7115 1 109.50000 418.400000
5876 13227 7116 1 109.50000 418.400000
5876 13227 7117 1 109.50000 418.400000
7115 13227 7116 1 109.50000 418.400000
7115 13227 7117 1 109.50000 418.400000
7116 13227 7117 1 109.50000 418.400000
3244 13228 7118 1 109.50000 418.400000
3244 13228 7119 1 109.50000 418.400000
3244 13228 7120 1 109.50000 418.400000
7118 13228 7119 1 109.50000 418.400000
7118 13228 7120 1 109.50000 418.400000
7119 13228 7120 1 109.50000 418.400000
5859 13229 7121 1 109.50000 418.400000
5859 13229 7122 1 109.50000 418.400000
5859 13229 7123 1 109.50000 418.400000
7121 13229 7122 1 109.50000 418.400000
7121 13229 7123 1 109.50000 418.400000
7122 13229 7123 1 109.50000 418.400000
5073 13230 5892 1 109.50000 418.400000
5073 13230 7124 1 109.50000 418.400000
5073 13230 7125 1 109.50000 418.400000
5892 13230 7124 1 109.50000 418.400000
5892 13230 7125 1 109.50000 418.400000
7124 13230 7125 1 109.50000 418.400000
7127 13231 7128 1 109.50000 418.400000
7127 13231 7129 1 109.50000 418.400000
7127 13231 7130 1 109.50000 418.400000
7128 13231 7129 1 109.50000 418.400000
7128 13231 7130 1 109.50000 418.400000
7129 13231 7130 1 109.50000 418.400000
1063 13232 2410 1 109.50000 418.400000
1063 13232 3578 1 109.50000 418.400000
1063 13232 7131 1 109.50000 418.400000
2410 13232 3578 1 109.50000 418.400000
2410 13232 7131 1 109.50000 418.400000
3578 13232 7131 1 109.50000 418.400000
557 13233 3503 1 109.50000 418.400000
557 13233 7133 1 109.50000 418.400000
557 13233 7134 1 109.50000 418.400000
3503 13233 7133 1 109.50000 418.400000
3503 13233 7134 1 109.50000 418.400000
7133 13233 7134 1 109.50000 418.400000
883 13234 7135 1 109.50000 418.400000
883 13234 7136 1 109.50000 418.400000
883 13234 7137 1 109.50000 418.400000
7135 13234 7136 1 109.50000 418.400000
7135 13234 7137 1 109.50000 418.400000
7136 13234 7137 1 109.50000 418.400000
3292 13235 7138 1 109.50000 418.400000
3292 13235 7139 1 109.50000 418.400000
3292 13235 7140 1 109.50000 418.400000
7138 13235 7139 1 109.50000 418.400000
7138 13235 7140 1 109.50000 418.400000
7139 13235 7140 1 109.50000 418.400000
5375 13236 5376 1 109.50000 418.400000
5375 13236 7143 1 109.50000 418.400000
5375 13236 7145 1 109.50000 418.400000
5376 13236 7143 1 109.50000 418.400000
5376 13236 7145 1 109.50000 418.400000
7143 13236 7145 1 109.50000 418.400000
5298 13237 7146 1 109.50000 418.400000
5298 13237 7147 1 109.50000 418.400000
5298 13237 7148 1 109.50000 418.400000
7146 13237 7147 1 109.50000 418.400000
7146 13237 7148 1 109.50000 418.400000
7147 13237 7148 1 109.50000 418.400000
3892 13238 7149 1 109.50000 418.400000
3892 13238 7150 1 109.50000 418.400000
3892 13238 7151 1 109.50000 418.400000
7149 13238 7150 1 109.50000 418.400000
7149 13238 7151 1 109.50000 418.400000
7150 13238 7151 1 109.50000 418.400000
2859 13239 3111 1 109.50000 418.400000
2859 13239 6204 1 109.50000 418.400000
2859 13239 7152 1 109.50000 418.400000
3111 13239 6204 1 109.50000 418.400000
3111 13239 7152 1 109.50000 418.400000
6204 13239 7152 1 109.50000 418.400000
3907 13240 7155 1 109.50000 418.400000
3907 13240 7156 1 109.50000 418.400000
3907 13240 7157 1 109.50000 418.400000
7155 13240 7156 1 109.50000 418.400000
7155 13240 7157 1 109.50000 418.400000
7156 13240 7157 1 109.50000 418.400000
7158 13241 7159 1 109.50000 418.400000
7158 13241 7160 1 109.50000 418.400000
7158 13241 7161 1 109.50000 418.400000
7159 13241 7160 1 109.50000 418.400000
7159 13241 7161 1 109.50000 418.400000
7160 13241 7161 1 109.50000 418.400000
6749 13242 7031 1 109.50000 418.400000
6749 13242 7162 1 109.50000 418.400000
6749 13242 7163 1 109.50000 418.400000
7031 13242 7162 1 109.50000 418.400000
7031 13242 7163 1 109.50000 418.400000
7162 13242 7163 1 109.50000 418.400000
2326 13243 7164 1 109.50000 418.400000
2326 13243 7165 1 109.50000 418.400000
2326 13243 7166 1 109.50000 418.400000
7164 13243 7165 1 109.50000 418.400000
7164 13243 7166 1 109.50000 418.400000
7165 13243 7166 1 109.50000 418.400000
1811 13244 3447 1 109.50000 418.400000
1811 13244 4621 1 109.50000 418.400000
1811 13244 7167 1 109.50000 418.400000
3447 13244 4621 1 109.50000 418.400000
3447 13244 7167 1 109.50000 418.400000
4621 13244 7167 1 109.50000 418.400000
2115 13245 7172 1 109.50000 418.400000
2115 13245 7173 1 109.50000 418.400000
2115 13245 7174 1 109.50000 418.400000
7172 13245 7173 1 109.50000 418.400000
7172 13245 7174 1 109.50000 418.400000
7173 13245 7174 1 109.50000 418.400000
2051 13246 7175 1 109.50000 418.400000
2051 13246 7176 1 109.50000 418.400000
2051 13246 7177 1 109.50000 418.400000
7175 13246 7176 1 109.50000 418.400000
7175 13246 7177 1 109.50000 418.400000
7176 13246 7177 1 109.50000 418.400000
1145 13247 4721 1 109.50000 418.400000
1145 13247 7178 1 109.50000 418.400000
1145 13247 7179 1 109.50000 418.400000
4721 13247 7178 1 109.50000 418.400000
4721 13247 7179 1 109.50000 418.400000
7178 13247 7179 1 109.50000 418.400000
439 13248 4514 1 109.50000 418.400000
439 13248 7181 1 109.50000 418.400000
439 13248 7182 1 109.50000 418.400000
4514 13248 7181 1 109.50000 418.400000
4514 13248 7182 1 109.50000 418.400000
7181 13248 7182 1 109.50000 418.400000
5634 13249 6086 1 109.50000 418.400000
5634 13249 6510 1 109.50000 418.400000
5634 13249 7183 1 109.50000 418.400000
6086 13249 6510 1 109.50000 418.400000
6086 13249 7183 1 109.50000 418.400000
6510 13249 7183 1 109.50000 418.400000
4016 13250 6265 1 109.50000 418.400000
4016 13250 7184 1 109.50000 418.400000
4016 13250 7185 1 109.50000 418.400000
6265 13250 7184 1 109.50000 418.400000
6265 13250 7185 1 109.50000 418.400000
7184 13250 7185 1 109.50000 418.400000
7186 13251 7187 1 109.50000 418.400000
7186 13251 7188 1 109.50000 418.400000
7186 13251 7189 1 109.50000 418.400000
7187 13251 7188 1 109.50000 418.400000
7187 13251 7189 1 109.50000 418.400000
7188 13251 7189 1 109.50000 418.400000
7190 13252 7191 1 109.50000 418.400000
7190 13252 7192 1 109.50000 418.400000
7190 13252 7193 1 109.50000 418.400000
7191 13252 7192 1 109.50000 418.400000
7191 13252 7193 1 109.50000 418.400000
7192 13252 7193 1 109.50000 418.400000
5961 13253 7194 1 109.50000 418.400000
5961 13253 7195 1 109.50000 418.400000
5961 13253 11183 1 109.50000 418.400000
7194 13253 7195 1 109.50000 418.400000
7194 13253 11183 1 109.50000 418.400000
7195 13253 11183 1 109.50000 418.400000
5175 13254 6186 1 109.50000 418.400000
5175 13254 11151 1 109.50000 418.400000
5175 13254 11233 1 109.50000 418.400000
6186 13254 11151 1 109.50000 418.400000
6186 13254 11233 1 109.50000 418.400000
11151 13254 11233 1 109.50000 418.400000
38 13255 3291 1 109.50000 418.400000
38 13255 7196 1 109.50000 418.400000
38 13255 7197 1 109.50000 418.400000
3291 13255 7196 1 109.50000 418.400000
3291 13255 7197 1 109.50000 418.400000
7196 13255 7197 1 109.50000 418.400000
4982 13256 5246 1 109.50000 418.400000
4982 13256 7199 1 109.50000 418.400000
4982 13256 7200 1 109.50000 418.400000
5246 13256 7199 1 109.50000 418.400000
5246 13256 7200 1 109.50000 418.400000
7199 13256 7200 1 109.50000 418.400000
3139 13257 3203 1 109.50000 418.400000
3139 13257 7201 1 109.50000 418.400000
3139 13257 7202 1 109.50000 418.400000
3203 13257 7201 1 109.50000 418.400000
3203 13257 7202 1 109.50000 418.400000
7201 13257 7202 1 109.50000 418.400000
6444 13258 7203 1 109.50000 418.400000
6444 13258 7204 1 109.50000 418.400000
6444 13258 7469 1 109.50000 418.400000
7203 13258 7204 1 109.50000 418.400000
7203 13258 7469 1 109.50000 418.400000
7204 13258 7469 1 109.50000 418.400000
5885 13259 6346 1 109.50000 418.400000
5885 13259 7205 1 109.50000 418.400000
5885 13259 7206 1 109.50000 418.400000
6346 13259 7205 1 109.50000 418.400000
6346 13259 7206 1 109.50000 418.400000
7205 13259 7206 1 109.50000 418.400000
135 13260 3177 1 109.50000 418.400000
135 13260 7207 1 109.50000 418.400000
135 13260 7208 1 109.50000 418.400000
3177 13260 7207 1 109.50000 418.400000
3177 13260 7208 1 109.50000 418.400000
7207 13260 7208 1 109.50000 418.400000
698 13261 4637 1 109.50000 418.400000
698 13261 5355 1 109.50000 418.400000
698 13261 7209 1 109.50000 418.400000
4637 13261 5355 1 109.50000 418.400000
4637 13261 7209 1 109.50000 418.400000
5355 13261 7209 1 109.50000 418.400000
508 13262 3948 1 109.50000 418.400000
508 13262 5676 1 109.50000 418.400000
508 13262 6128 1 109.50000 418.400000
3948 13262 5676 1 109.50000 418.400000
3948 13262 6128 1 109.50000 418.400000
5676 13262 6128 1 109.50000 418.400000
7123 13263 7210 1 109.50000 418.400000
7123 13263 7211 1 109.50000 418.400000
7123 13263 7212 1 109.50000 418.400000
7210 13263 7211 1 109.50000 418.400000
7210 13263 7212 1 109.50000 418.400000
7211 13263 7212 1 109.50000 418.400000
4986 13264 5004 1 109.50000 418.400000
4986 13264 5889 1 109.50000 418.400000
4986 13264 7213 1 109.50000 418.400000
5004 13264 5889 1 109.50000 418.400000
5004 13264 7213 1 109.50000 418.400000
5889 13264 7213 1 109.50000 418.400000
4819 13265 7214 1 109.50000 418.400000
4819 13265 7215 1 109.50000 418.400000
4819 13265 8122 1 109.50000 418.400000
7214 13265 7215 1 109.50000 418.400000
7214 13265 8122 1 109.50000 418.400000
7215 13265 8122 1 109.50000 418.400000
4455 13266 5146 1 109.50000 418.400000
4455 13266 7217 1 109.50000 418.400000
4455 13266 11209 1 109.50000 418.400000
5146 13266 7217 1 109.50000 418.400000
5146 13266 11209 1 109.50000 418.400000
7217 13266 11209 1 109.50000 418.400000
7218 13267 7219 1 109.50000 418.400000
7218 13267 7220 1 109.50000 418.400000
7218 13267 7221 1 109.50000 418.400000
7219 13267 7220 1 109.50000 418.400000
7219 13267 7221 1 109.50000 418.400000
7220 13267 7221 1 109.50000 418.400000
2885 13268 4353 1 109.50000 418.400000
2885 13268 7225 1 109.50000 418.400000
2885 13268 7226 1 109.50000 418.400000
4353 13268 7225 1 109.50000 418.400000
4353 13268 7226 1 109.50000 418.400000
7225 13268 7226 1 109.50000 418.400000
3077 13269 4156 1 109.50000 418.400000
3077 13269 6419 1 109.50000 418.400000
3077 13269 7227 1 109.50000 418.400000
4156 13269 6419 1 109.50000 418.400000
4156 13269 7227 1 109.50000 418.400000
6419 13269 7227 1 109.50000 418.400000
7228 13270 7229 1 109.50000 418.400000
7228 13270 7230 1 109.50000 418.400000
7228 13270 7231 1 109.50000 418.400000
7229 13270 7230 1 109.50000 418.400000
7229 13270 7231 1 109.50000 418.400000
7230 13270 7231 1 109.50000 418.400000
4146 13271 7232 1 109.50000 418.400000
4146 13271 7233 1 109.50000 418.400000
4146 13271 7234 1 109.50000 418.400000
7232 13271 7233 1 109.50000 418.400000
7232 13271 7234 1 109.50000 418.400000
7233 13271 7234 1 109.50000 418.400000
296 13272 297 1 109.50000 418.400000
296 13272 7235 1 109.50000 418.400000
296 13272 7236 1 109.50000 418.400000
297 13272 7235 1 109.50000 418.400000
297 13272 7236 1 109.50000 418.400000
7235 13272 7236 1 109.50000 418.400000
1919 13273 6747 1 109.50000 418.400000
1919 13273 7238 1 109.50000 418.400000
1919 13273 7239 1 109.50000 418.400000
6747 13273 7238 1 109.50000 418.400000
6747 13273 7239 1 109.50000 418.400000
7238 13273 7239 1 109.50000 418.400000
94 13274 7241 1 109.50000 418.400000
94 13274 7242 1 109.50000 418.400000
94 13274 10704 1 109.50000 418.400000
7241 13274 7242 1 109.50000 418.400000
7241 13274 10704 1 109.50000 418.400000
7242 13274 10704 1 109.50000 418.400000
1241 13275 6534 1 109.50000 418.400000
1241 13275 7243 1 109.50000 418.400000
1241 13275 7244 1 109.50000 418.400000
6534 13275 7243 1 109.50000 418.400000
6534 13275 7244 1 109.50000 418.400000
7243 13275 7244 1 109.50000 418.400000
3786 13276 5207 1 109.50000 418.400000
3786 13276 7245 1 109.50000 418.400000
3786 13276 7246 1 109.50000 418.400000
5207 13276 7245 1 109.50000 418.400000
5207 13276 7246 1 109.50000 418.400000
7245 13276 7246 1 109.50000 418.400000
7247 13277 7248 1 109.50000 418.400000
7247 13277 7249 1 109.50000 418.400000
7247 13277 7250 1 109.50000 418.400000
7248 13277 7249 1 109.50000 418.400000
7248 13277 7250 1 109.50000 418.400000
7249 13277 7250 1 109.50000 418.400000
4054 13278 6098 1 109.50000 418.400000
4054 13278 6518 1 109.50000 418.400000
4054 13278 7251 1 109.50000 418.400000
6098 13278 6518 1 109.50000 418.400000
6098 13278 7251 1 109.50000 418.400000
6518 13278 7251 1 109.50000 418.400000
954 13279 3295 1 109.50000 418.400000
954 13279 7193 1 109.50000 418.400000
954 13279 7253 1 109.50000 418.400000
3295 13279 7193 1 109.50000 418.400000
3295 13279 7253 1 109.50000 418.400000
7193 13279 7253 1 109.50000 418.400000
1210 13280 2284 1 109.50000 418.400000
1210 13280 7254 1 109.50000 418.400000
1210 13280 8084 1 109.50000 418.400000
2284 13280 7254 1 109.50000 418.400000
2284 13280 8084 1 109.50000 418.400000
7254 13280 8084 1 109.50000 418.400000
3084 13281 3086 1 109.50000 418.400000
3084 13281 7255 1 109.50000 418.400000
3084 13281 7256 1 109.50000 418.400000
3086 13281 7255 1 109.50000 418.400000
3086 13281 7256 1 109.50000 418.400000
7255 13281 7256 1 109.50000 418.400000
1941 13282 5608 1 109.50000 418.400000
1941 13282 7258 1 109.50000 418.400000
1941 13282 7259 1 109.50000 418.400000
5608 13282 7258 1 109.50000 418.400000
5608 13282 7259 1 109.50000 418.400000
7258 13282 7259 1 109.50000 418.400000
5904 13283 5938 1 109.50000 418.400000
5904 13283 7260 1 109.50000 418.400000
5904 13283 7261 1 109.50000 418.400000
5938 13283 7260 1 109.50000 418.400000
5938 13283 7261 1 109.50000 418.400000
7260 13283 7261 1 109.50000 418.400000
111 13284 451 1 109.50000 418.400000
111 13284 7265 1 109.50000 418.400000
111 13284 7266 1 109.50000 418.400000
451 13284 7265 1 109.50000 418.400000
451 13284 7266 1 109.50000 418.400000
7265 13284 7266 1 109.50000 418.400000
1541 13285 3366 1 109.50000 418.400000
1541 13285 3367 1 109.50000 418.400000
1541 13285 7267 1 109.50000 418.400000
3366 13285 3367 1 109.50000 418.400000
3366 13285 7267 1 109.50000 418.400000
3367 13285 7267 1 109.50000 418.400000
2681 13286 2901 1 109.50000 418.400000
2681 13286 5778 1 109.50000 418.400000
2681 13286 5959 1 109.50000 418.400000
2901 13286 5778 1 109.50000 418.400000
2901 13286 5959 1 109.50000 418.400000
5778 13286 5959 1 109.50000 418.400000
6203 13287 6660 1 109.50000 418.400000
6203 13287 7270 1 109.50000 418.400000
6203 13287 10401 1 109.50000 418.400000
6660 13287 7270 1 109.50000 418.400000
6660 13287 10401 1 109.50000 418.400000
7270 13287 10401 1 109.50000 418.400000
7271 13288 7272 1 109.50000 418.400000
7271 13288 7273 1 109.50000 418.400000
7271 13288 7274 1 109.50000 418.400000
7272 13288 7273 1 109.50000 418.400000
7272 13288 7274 1 109.50000 418.400000
7273 13288 7274 1 109.50000 418.400000
823 13289 4227 1 109.50000 418.400000
823 13289 7275 1 109.50000 418.400000
823 13289 7276 1 109.50000 418.400000
4227 13289 7275 1 109.50000 418.400000
4227 13289 7276 1 109.50000 418.400000
7275 13289 7276 1 109.50000 418.400000
7278 13290 7279 1 109.50000 418.400000
7278 13290 7280 1 109.50000 418.400000
7278 13290 9033 1 109.50000 418.400000
7279 13290 7280 1 109.50000 418.400000
7279 13290 9033 1 109.50000 418.400000
7280 13290 9033 1 109.50000 418.400000
2146 13291 5475 1 109.50000 418.400000
2146 13291 6135 1 109.50000 418.400000
2146 13291 7281 1 109.50000 418.400000
5475 13291 6135 1 109.50000 418.400000
5475 13291 7281 1 109.50000 418.400000
6135 13291 7281 1 109.50000 418.400000
7268 13292 7284 1 109.50000 418.400000
7268 13292 7285 1 109.50000 418.400000
7268 13292 7286 1 109.50000 418.400000
7284 13292 7285 1 109.50000 418.400000
7284 13292 7286 1 109.50000 418.400000
7285 13292 7286 1 109.50000 418.400000
2285 13293 5579 1 109.50000 418.400000
2285 13293 7223 1 109.50000 418.400000
2285 13293 7287 1 109.50000 418.400000
5579 13293 7223 1 109.50000 418.400000
5579 13293 7287 1 109.50000 418.400000
7223 13293 7287 1 109.50000 418.400000
7289 13294 7290 1 109.50000 418.400000
7289 13294 10193 1 109.50000 418.400000
7289 13294 10839 1 109.50000 418.400000
7290 13294 10193 1 109.50000 418.400000
7290 13294 10839 1 109.50000 418.400000
10193 13294 10839 1 109.50000 418.400000
15 13295 7292 1 109.50000 418.400000
15 13295 7293 1 109.50000 418.400000
15 13295 7294 1 109.50000 418.400000
7292 13295 7293 1 109.50000 418.400000
7292 13295 7294 1 109.50000 418.400000
7293 13295 7294 1 109.50000 418.400000
3471 13296 7295 1 109.50000 418.400000
3471 13296 7296 1 109.50000 418.400000
3471 13296 7297 1 109.50000 418.400000
7295 13296 7296 1 109.50000 418.400000
7295 13296 7297 1 109.50000 418.400000
7296 13296 7297 1 109.50000 418.400000
5056 13297 5978 1 109.50000 418.400000
5056 13297 5980 1 109.50000 418.400000
5056 13297 5981 1 109.50000 418.400000
5978 13297 5980 1 109.50000 418.400000
5978 13297 5981 1 109.50000 418.400000
5980 13297 5981 1 109.50000 418.400000
2847 13298 7298 1 109.50000 418.400000
2847 13298 7299 1 109.50000 418.400000
2847 13298 7300 1 109.50000 418.400000
7298 13298 7299 1 109.50000 418.400000
7298 13298 7300 1 109.50000 418.400000
7299 13298 7300 1 109.50000 418.400000
6237 13299 7303 1 109.50000 418.400000
6237 13299 7304 1 109.50000 418.400000
6237 13299 7305 1 109.50000 418.400000
7303 13299 7304 1 109.50000 418.400000
7303 13299 7305 1 109.50000 418.400000
7304 13299 7305 1 109.50000 418.400000
4644 13300 7306 1 109.50000 418.400000
4644 13300 7307 1 109.50000 418.400000
4644 13300 7308 1 109.50000 418.400000
7306 13300 7307 1 109.50000 418.400000
7306 13300 7308 1 109.50000 418.400000
7307 13300 7308 1 109.50000 418.400000
7309 13301 7310 1 109.50000 418.400000
7309 13301 7311 1 109.50000 418.400000
7309 13301 7312 1 109.50000 418.400000
7310 13301 7311 1 109.50000 418.400000
7310 13301 7312 1 109.50000 418.400000
7311 13301 7312 1 109.50000 418.400000
1490 13302 7151 1 109.50000 418.400000
1490 13302 7313 1 109.50000 418.400000
1490 13302 7314 1 109.50000 418.400000
7151 13302 7313 1 109.50000 418.400000
7151 13302 7314 1 109.50000 418.400000
7313 13302 7314 1 109.50000 418.400000
5389 13303 7315 1 109.50000 418.400000
5389 13303 7316 1 109.50000 418.400000
5389 13303 9938 1 109.50000 418.400000
7315 13303 7316 1 109.50000 418.400000
7315 13303 9938 1 109.50000 418.400000
7316 13303 9938 1 109.50000 418.400000
5927 13304 5952 1 109.50000 418.400000
5927 13304 7129 1 109.50000 418.400000
5927 13304 7231 1 109.50000 418.400000
5952 13304 7129 1 109.50000 418.400000
5952 13304 7231 1 109.50000 418.400000
7129 13304 7231 1 109.50000 418.400000
752 13305 2567 1 109.50000 418.400000
752 13305 7317 1 109.50000 418.400000
752 13305 7318 1 109.50000 418.400000
2567 13305 7317 1 109.50000 418.400000
2567 13305 7318 1 109.50000 418.400000
7317 13305 7318 1 109.50000 418.400000
1349 13306 1350 1 109.50000 418.400000
1349 13306 1351 1 109.50000 418.400000
1349 13306 9817 1 109.50000 418.400000
1350 13306 1351 1 109.50000 418.400000
1350 13306 9817 1 109.50000 418.400000
1351 13306 9817 1 109.50000 418.400000
2067 13307 5248 1 109.50000 418.400000
2067 13307 7321 1 109.50000 418.400000
2067 13307 7322 1 109.50000 418.400000
5248 13307 7321 1 109.50000 418.400000
5248 13307 7322 1 109.50000 418.400000
7321 13307 7322 1 109.50000 418.400000
1974 13308 2464 1 109.50000 418.400000
1974 13308 7323 1 109.50000 418.400000
1974 13308 7324 1 109.50000 418.400000
2464 13308 7323 1 109.50000 418.400000
2464 13308 7324 1 109.50000 418.400000
7323 13308 7324 1 109.50000 418.400000
3228 13309 3281 1 109.50000 418.400000
3228 13309 4306 1 109.50000 418.400000
3228 13309 4987 1 109.50000 418.400000
3281 13309 4306 1 109.50000 418.400000
3281 13309 4987 1 109.50000 418.400000
4306 13309 4987 1 109.50000 418.400000
6506 13310 7327 1 109.50000 418.400000
6506 13310 7328 1 109.50000 418.400000
6506 13310 7781 1 109.50000 418.400000
7327 13310 7328 1 109.50000 418.400000
7327 13310 7781 1 109.50000 418.400000
7328 13310 7781 1 109.50000 418.400000
3327 13311 6176 1 109.50000 418.400000
3327 13311 7283 1 109.50000 418.400000
3327 13311 7329 1 109.50000 418.400000
6176 13311 7283 1 109.50000 418.400000
6176 13311 7329 1 109.50000 418.400000
7283 13311 7329 1 109.50000 418.400000
86 13312 4920 1 109.50000 418.400000
86 13312 5187 1 109.50000 418.400000
86 13312 7330 1 109.50000 418.400000
4920 13312 5187 1 109.50000 418.400000
4920 13312 7330 1 109.50000 418.400000
5187 13312 7330 1 109.50000 418.400000
6906 13313 7331 1 109.50000 418.400000
6906 13313 7332 1 109.50000 418.400000
6906 13313 7333 1 109.50000 418.400000
7331 13313 7332 1 109.50000 418.400000
7331 13313 7333 1 109.50000 418.400000
7332 13313 7333 1 109.50000 418.400000
7334 13314 7335 1 109.50000 418.400000
7334 13314 7336 1 109.50000 418.400000
7334 13314 7337 1 109.50000 418.400000
7335 13314 7336 1 109.50000 418.400000
7335 13314 7337 1 109.50000 418.400000
7336 13314 7337 1 109.50000 418.400000
3200 13315 7338 1 109.50000 418.400000
3200 13315 7339 1 109.50000 418.400000
3200 13315 7340 1 109.50000 418.400000
7338 13315 7339 1 109.50000 418.400000
7338 13315 7340 1 109.50000 418.400000
7339 13315 7340 1 109.50000 418.400000
6163 13316 7342 1 109.50000 418.400000
6163 13316 7343 1 109.50000 418.400000
6163 13316 7344 1 109.50000 418.400000
7342 13316 7343 1 109.50000 418.400000
7342 13316 7344 1 109.50000 418.400000
7343 13316 7344 1 109.50000 418.400000
2254 13317 7345 1 109.50000 418.400000
2254 13317 7346 1 109.50000 418.400000
2254 13317 7347 1 109.50000 418.400000
7345 13317 7346 1 109.50000 418.400000
7345 13317 7347 1 109.50000 418.400000
7346 13317 7347 1 109.50000 418.400000
7284 13318 7348 1 109.50000 418.400000
7284 13318 7349 1 109.50000 418.400000
7284 13318 7350 1 109.50000 418.400000
7348 13318 7349 1 109.50000 418.400000
7348 13318 7350 1 109.50000 418.400000
7349 13318 7350 1 109.50000 418.400000
4098 13319 7351 1 109.50000 418.400000
4098 13319 7352 1 109.50000 418.400000
4098 13319 7353 1 109.50000 418.400000
7351 13319 7352 1 109.50000 418.400000
7351 13319 7353 1 109.50000 418.400000
7352 13319 7353 1 109.50000 418.400000
2736 13320 7354 1 109.50000 418.400000
2736 13320 7355 1 109.50000 418.400000
2736 13320 7356 1 109.50000 418.400000
7354 13320 7355 1 109.50000 418.400000
7354 13320 7356 1 109.50000 418.400000
7355 13320 7356 1 109.50000 418.400000
1938 13321 6762 1 109.50000 418.400000
1938 13321 7357 1 109.50000 418.400000
1938 13321 7359 1 109.50000 418.400000
6762 13321 7357 1 109.50000 418.400000
6762 13321 7359 1 109.50000 418.400000
7357 13321 7359 1 109.50000 418.400000
2654 13322 7360 1 109.50000 418.400000
2654 13322 7361 1 109.50000 418.400000
2654 13322 7362 1 109.50000 418.400000
7360 13322 7361 1 109.50000 418.400000
7360 13322 7362 1 109.50000 418.400000
7361 13322 7362 1 109.50000 418.400000
5940 13323 7363 1 109.50000 418.400000
5940 13323 7364 1 109.50000 418.400000
5940 13323 7365 1 109.50000 418.400000
7363 13323 7364 1 109.50000 418.400000
7363 13323 7365 1 109.50000 418.400000
7364 13323 7365 1 109.50000 418.400000
2366 13324 2704 1 109.50000 418.400000
2366 13324 6754 1 109.50000 418.400000
2366 13324 7366 1 109.50000 418.400000
2704 13324 6754 1 109.50000 418.400000
2704 13324 7366 1 109.50000 418.400000
6754 13324 7366 1 109.50000 418.400000
159 13325 3972 1 109.50000 418.400000
159 13325 4882 1 109.50000 418.400000
159 13325 7367 1 109.50000 418.400000
3972 13325 4882 1 109.50000 418.400000
3972 13325 7367 1 109.50000 418.400000
4882 13325 7367 1 109.50000 418.400000
1150 13326 1151 1 109.50000 418.400000
1150 13326 7370 1 109.50000 418.400000
1150 13326 7372 1 109.50000 418.400000
1151 13326 7370 1 109.50000 418.400000
1151 13326 7372 1 109.50000 418.400000
7370 13326 7372 1 109.50000 418.400000
1199 13327 1201 1 109.50000 418.400000
1199 13327 7374 1 109.50000 418.400000
1199 13327 9508 1 109.50000 418.400000
1201 13327 7374 1 109.50000 418.400000
1201 13327 9508 1 109.50000 418.400000
7374 13327 9508 1 109.50000 418.400000
1641 13328 5273 1 109.50000 418.400000
1641 13328 5972 1 109.50000 418.400000
1641 13328 7247 1 109.50000 418.400000
5273 13328 5972 1 109.50000 418.400000
5273 13328 7247 1 109.50000 418.400000
5972 13328 7247 1 109.50000 418.400000
7377 13329 7378 1 109.50000 418.400000
7377 13329 7379 1 109.50000 418.400000
7377 13329 7380 1 109.50000 418.400000
7378 13329 7379 1 109.50000 418.400000
7378 13329 7380 1 109.50000 418.400000
7379 13329 7380 1 109.50000 418.400000
1579 13330 4321 1 109.50000 418.400000
1579 13330 7381 1 109.50000 418.400000
1579 13330 7382 1 109.50000 418.400000
4321 13330 7381 1 109.50000 418.400000
4321 13330 7382 1 109.50000 418.400000
7381 13330 7382 1 109.50000 418.400000
3131 13331 4985 1 109.50000 418.400000
3131 13331 6445 1 109.50000 418.400000
3131 13331 7383 1 109.50000 418.400000
4985 13331 6445 1 109.50000 418.400000
4985 13331 7383 1 109.50000 418.400000
6445 13331 7383 1 109.50000 418.400000
5586 13332 5912 1 109.50000 418.400000
5586 13332 6105 1 109.50000 418.400000
5586 13332 7091 1 109.50000 418.400000
5912 13332 6105 1 109.50000 418.400000
5912 13332 7091 1 109.50000 418.400000
6105 13332 7091 1 109.50000 418.400000
7384 13333 7385 1 109.50000 418.400000
7384 13333 7386 1 109.50000 418.400000
7384 13333 7387 1 109.50000 418.400000
7385 13333 7386 1 109.50000 418.400000
7385 13333 7387 1 109.50000 418.400000
7386 13333 7387 1 109.50000 418.400000
541 13334 3182 1 109.50000 418.400000
541 13334 7388 1 109.50000 418.400000
541 13334 7389 1 109.50000 418.400000
3182 13334 7388 1 109.50000 418.400000
3182 13334 7389 1 109.50000 418.400000
7388 13334 7389 1 109.50000 418.400000
6791 13335 7022 1 109.50000 418.400000
6791 13335 7390 1 109.50000 418.400000
6791 13335 7391 1 109.50000 418.400000
7022 13335 7390 1 109.50000 418.400000
7022 13335 7391 1 109.50000 418.400000
7390 13335 7391 1 109.50000 418.400000
773 13336 4579 1 109.50000 418.400000
773 13336 7392 1 109.50000 418.400000
773 13336 7393 1 109.50000 418.400000
4579 13336 7392 1 109.50000 418.400000
4579 13336 7393 1 109.50000 418.400000
7392 13336 7393 1 109.50000 418.400000
5994 13337 7394 1 109.50000 418.400000
5994 13337 7395 1 109.50000 418.400000
5994 13337 7396 1 109.50000 418.400000
7394 13337 7395 1 109.50000 418.400000
7394 13337 7396 1 109.50000 418.400000
7395 13337 7396 1 109.50000 418.400000
86 13338 88 1 109.50000 418.400000
86 13338 7397 1 109.50000 418.400000
86 13338 7398 1 109.50000 418.400000
88 13338 7397 1 109.50000 418.400000
88 13338 7398 1 109.50000 418.400000
7397 13338 7398 1 109.50000 418.400000
7401 13339 7402 1 109.50000 418.400000
7401 13339 7403 1 109.50000 418.400000
7401 13339 7404 1 109.50000 418.400000
7402 13339 7403 1 109.50000 418.400000
7402 13339 7404 1 109.50000 418.400000
7403 13339 7404 1 109.50000 418.400000
3720 13340 7405 1 109.50000 418.400000
3720 13340 7406 1 109.50000 418.400000
3720 13340 7407 1 109.50000 418.400000
7405 13340 7406 1 109.50000 418.400000
7405 13340 7407 1 109.50000 418.400000
7406 13340 7407 1 109.50000 418.400000
3954 13341 3956 1 109.50000 418.400000
3954 13341 7408 1 109.50000 418.400000
3954 13341 10864 1 109.50000 418.400000
3956 13341 7408 1 109.50000 418.400000
3956 13341 10864 1 109.50000 418.400000
7408 13341 10864 1 109.50000 418.400000
5465 13342 7411 1 109.50000 418.400000
5465 13342 7412 1 109.50000 418.400000
5465 13342 7413 1 109.50000 418.400000
7411 13342 7412 1 109.50000 418.400000
7411 13342 7413 1 109.50000 418.400000
7412 13342 7413 1 109.50000 418.400000
2701 13343 3230 1 109.50000 418.400000
2701 13343 3262 1 109.50000 418.400000
2701 13343 7414 1 109.50000 418.400000
3230 13343 3262 1 109.50000 418.400000
3230 13343 7414 1 109.50000 418.400000
3262 13343 7414 1 109.50000 418.400000
4181 13344 5817 1 109.50000 418.400000
4181 13344 7415 1 109.50000 418.400000
4181 13344 7416 1 109.50000 418.400000
5817 13344 7415 1 109.50000 418.400000
5817 13344 7416 1 109.50000 418.400000
7415 13344 7416 1 109.50000 418.400000
2714 13345 4679 1 109.50000 418.400000
2714 13345 7253 1 109.50000 418.400000
2714 13345 7417 1 109.50000 418.400000
4679 13345 7253 1 109.50000 418.400000
4679 13345 7417 1 109.50000 418.400000
7253 13345 7417 1 109.50000 418.400000
726 13346 7418 1 109.50000 418.400000
726 13346 7419 1 109.50000 418.400000
726 13346 7420 1 109.50000 418.400000
7418 13346 7419 1 109.50000 418.400000
7418 13346 7420 1 109.50000 418.400000
7419 13346 7420 1 109.50000 418.400000
5345 13347 6069 1 109.50000 418.400000
5345 13347 7421 1 109.50000 418.400000
5345 13347 7422 1 109.50000 418.400000
6069 13347 7421 1 109.50000 418.400000
6069 13347 7422 1 109.50000 418.400000
7421 13347 7422 1 109.50000 418.400000
3288 13348 6035 1 109.50000 418.400000
3288 13348 6553 1 109.50000 418.400000
3288 13348 7423 1 109.50000 418.400000
6035 13348 6553 1 109.50000 418.400000
6035 13348 7423 1 109.50000 418.400000
6553 13348 7423 1 109.50000 418.400000
7409 13349 7424 1 109.50000 418.400000
7409 13349 7425 1 109.50000 418.400000
7409 13349 7426 1 109.50000 418.400000
7424 13349 7425 1 109.50000 418.400000
7424 13349 7426 1 109.50000 418.400000
7425 13349 7426 1 109.50000 418.400000
6639 13350 7427 1 109.50000 418.400000
6639 13350 7428 1 109.50000 418.400000
6639 13350 7429 1 109.50000 418.400000
7427 13350 7428 1 109.50000 418.400000
7427 13350 7429 1 109.50000 418.400000
7428 13350 7429 1 109.50000 418.400000
7093 13351 7249 1 109.50000 418.400000
7093 13351 7430 1 109.50000 418.400000
7093 13351 7432 1 109.50000 418.400000
7249 13351 7430 1 109.50000 418.400000
7249 13351 7432 1 109.50000 418.400000
7430 13351 7432 1 109.50000 418.400000
1077 13352 4417 1 109.50000 418.400000
1077 13352 5296 1 109.50000 418.400000
1077 13352 7433 1 109.50000 418.400000
4417 13352 5296 1 109.50000 418.400000
4417 13352 7433 1 109.50000 418.400000
5296 13352 7433 1 109.50000 418.400000
4259 13353 7434 1 109.50000 418.400000
4259 13353 7435 1 109.50000 418.400000
4259 13353 7436 1 109.50000 418.400000
7434 13353 7435 1 109.50000 418.400000
7434 13353 7436 1 109.50000 418.400000
7435 13353 7436 1 109.50000 418.400000
1166 13354 7437 1 109.50000 418.400000
1166 13354 7438 1 109.50000 418.400000
1166 13354 7439 1 109.50000 418.400000
7437 13354 7438 1 109.50000 418.400000
7437 13354 7439 1 109.50000 418.400000
7438 13354 7439 1 109.50000 418.400000
4880 13355 7310 1 109.50000 418.400000
4880 13355 7440 1 109.50000 418.400000
4880 13355 7441 1 109.50000 418.400000
7310 13355 7440 1 109.50000 418.400000
7310 13355 7441 1 109.50000 418.400000
7440 13355 7441 1 109.50000 418.400000
4383 13356 6138 1 109.50000 418.400000
4383 13356 7181 1 109.50000 418.400000
4383 13356 7442 1 109.50000 418.400000
6138 13356 7181 1 109.50000 418.400000
6138 13356 7442 1 109.50000 418.400000
7181 13356 7442 1 109.50000 418.400000
4460 13357 7443 1 109.50000 418.400000
4460 13357 7444 1 109.50000 418.400000
4460 13357 7445 1 109.50000 418.400000
7443 13357 7444 1 109.50000 418.400000
7443 13357 7445 1 109.50000 418.400000
7444 13357 7445 1 109.50000 418.400000
4307 13358 6407 1 109.50000 418.400000
4307 13358 6765 1 109.50000 418.400000
4307 13358 6916 1 109.50000 418.400000
6407 13358 6765 1 109.50000 418.400000
6407 13358 6916 1 109.50000 418.400000
6765 13358 6916 1 109.50000 418.400000
4807 13359 6656 1 109.50000 418.400000
4807 13359 7447 1 109.50000 418.400000
4807 13359 7448 1 109.50000 418.400000
6656 13359 7447 1 109.50000 418.400000
6656 13359 7448 1 109.50000 418.400000
7447 13359 7448 1 109.50000 418.400000
4675 13360 6912 1 109.50000 418.400000
4675 13360 7449 1 109.50000 418.400000
4675 13360 7450 1 109.50000 418.400000
6912 13360 7449 1 109.50000 418.400000
6912 13360 7450 1 109.50000 418.400000
7449 13360 7450 1 109.50000 418.400000
6161 13361 6162 1 109.50000 418.400000
6161 13361 7452 1 109.50000 418.400000
6161 13361 7453 1 109.50000 418.400000
6162 13361 7452 1 109.50000 418.400000
6162 13361 7453 1 109.50000 418.400000
7452 13361 7453 1 109.50000 418.400000
6706 13362 7454 1 109.50000 418.400000
6706 13362 7455 1 109.50000 418.400000
6706 13362 7456 1 109.50000 418.400000
7454 13362 7455 1 109.50000 418.400000
7454 13362 7456 1 109.50000 418.400000
7455 13362 7456 1 109.50000 418.400000
13 13363 2589 1 109.50000 418.400000
13 13363 7457 1 109.50000 418.400000
13 13363 7458 1 109.50000 418.400000
2589 13363 7457 1 109.50000 418.400000
2589 13363 7458 1 109.50000 418.400000
7457 13363 7458 1 109.50000 418.400000
5055 13364 7459 1 109.50000 418.400000
5055 13364 7460 1 109.50000 418.400000
5055 13364 7461 1 109.50000 418.400000
7459 13364 7460 1 109.50000 418.400000
7459 13364 7461 1 109.50000 418.400000
7460 13364 7461 1 109.50000 418.400000
746 13365 1795 1 109.50000 418.400000
746 13365 7462 1 109.50000 418.400000
746 13365 7463 1 109.50000 418.400000
1795 13365 7462 1 109.50000 418.400000
1795 13365 7463 1 109.50000 418.400000
7462 13365 7463 1 109.50000 418.400000
2547 13366 7464 1 109.50000 418.400000
2547 13366 7465 1 109.50000 418.400000
2547 13366 7466 1 109.50000 418.400000
7464 13366 7465 1 109.50000 418.400000
7464 13366 7466 1 109.50000 418.400000
7465 13366 7466 1 109.50000 418.400000
6687 13367 6925 1 109.50000 418.400000
6687 13367 7467 1 109.50000 418.400000
6687 13367 7468 1 109.50000 418.400000
6925 13367 7467 1 109.50000 418.400000
6925 13367 7468 1 109.50000 418.400000
7467 13367 7468 1 109.50000 418.400000
4091 13368 5277 1 109.50000 418.400000
4091 13368 6410 1 109.50000 418.400000
4091 13368 7469 1 109.50000 418.400000
5277 13368 6410 1 109.50000 418.400000
5277 13368 7469 1 109.50000 418.400000
6410 13368 7469 1 109.50000 418.400000
2562 13369 4229 1 109.50000 418.400000
2562 13369 5403 1 109.50000 418.400000
2562 13369 7471 1 109.50000 418.400000
4229 13369 5403 1 109.50000 418.400000
4229 13369 7471 1 109.50000 418.400000
5403 13369 7471 1 109.50000 418.400000
2821 13370 7084 1 109.50000 418.400000
2821 13370 7271 1 109.50000 418.400000
2821 13370 7473 1 109.50000 418.400000
7084 13370 7271 1 109.50000 418.400000
7084 13370 7473 1 109.50000 418.400000
7271 13370 7473 1 109.50000 418.400000
7474 13371 7475 1 109.50000 418.400000
7474 13371 7476 1 109.50000 418.400000
7474 13371 7477 1 109.50000 418.400000
7475 13371 7476 1 109.50000 418.400000
7475 13371 7477 1 109.50000 418.400000
7476 13371 7477 1 109.50000 418.400000
5753 13372 6327 1 109.50000 418.400000
5753 13372 6431 1 109.50000 418.400000
5753 13372 7478 1 109.50000 418.400000
6327 13372 6431 1 109.50000 418.400000
6327 13372 7478 1 109.50000 418.400000
6431 13372 7478 1 109.50000 418.400000
407 13373 3707 1 109.50000 418.400000
407 13373 7479 1 109.50000 418.400000
407 13373 7480 1 109.50000 418.400000
3707 13373 7479 1 109.50000 418.400000
3707 13373 7480 1 109.50000 418.400000
7479 13373 7480 1 109.50000 418.400000
4336 13374 7481 1 109.50000 418.400000
4336 13374 7482 1 109.50000 418.400000
4336 13374 7483 1 109.50000 418.400000
7481 13374 7482 1 109.50000 418.400000
7481 13374 7483 1 109.50000 418.400000
7482 13374 7483 1 109.50000 418.400000
4959 13375 5571 1 109.50000 418.400000
4959 13375 6191 1 109.50000 418.400000
4959 13375 7484 1 109.50000 418.400000
5571 13375 6191 1 109.50000 418.400000
5571 13375 7484 1 109.50000 418.400000
6191 13375 7484 1 109.50000 418.400000
3340 13376 7487 1 109.50000 418.400000
3340 13376 7488 1 109.50000 418.400000
3340 13376 7489 1 109.50000 418.400000
7487 13376 7488 1 109.50000 418.400000
7487 13376 7489 1 109.50000 418.400000
7488 13376 7489 1 109.50000 418.400000
651 13377 7490 1 109.50000 418.400000
651 13377 7491 1 109.50000 418.400000
651 13377 7492 1 109.50000 418.400000
7490 13377 7491 1 109.50000 418.400000
7490 13377 7492 1 109.50000 418.400000
7491 13377 7492 1 109.50000 418.400000
2541 13378 4791 1 109.50000 418.400000
2541 13378 7493 1 109.50000 418.400000
2541 13378 7494 1 109.50000 418.400000
4791 13378 7493 1 109.50000 418.400000
4791 13378 7494 1 109.50000 418.400000
7493 13378 7494 1 109.50000 418.400000
6447 13379 7143 1 109.50000 418.400000
6447 13379 7495 1 109.50000 418.400000
6447 13379 7496 1 109.50000 418.400000
7143 13379 7495 1 109.50000 418.400000
7143 13379 7496 1 109.50000 418.400000
7495 13379 7496 1 109.50000 418.400000
7498 13380 7499 1 109.50000 418.400000
7498 13380 7500 1 109.50000 418.400000
7498 13380 7501 1 109.50000 418.400000
7499 13380 7500 1 109.50000 418.400000
7499 13380 7501 1 109.50000 418.400000
7500 13380 7501 1 109.50000 418.400000
891 13381 7502 1 109.50000 418.400000
891 13381 7503 1 109.50000 418.400000
891 13381 7504 1 109.50000 418.400000
7502 13381 7503 1 109.50000 418.400000
7502 13381 7504 1 109.50000 418.400000
7503 13381 7504 1 109.50000 418.400000
582 13382 5033 1 109.50000 418.400000
582 13382 7505 1 109.50000 418.400000
582 13382 7506 1 109.50000 418.400000
5033 13382 7505 1 109.50000 418.400000
5033 13382 7506 1 109.50000 418.400000
7505 13382 7506 1 109.50000 418.400000
3566 13383 4178 1 109.50000 418.400000
3566 13383 7508 1 109.50000 418.400000
3566 13383 7509 1 109.50000 418.400000
4178 13383 7508 1 109.50000 418.400000
4178 13383 7509 1 109.50000 418.400000
7508 13383 7509 1 109.50000 418.400000
611 13384 6450 1 109.50000 418.400000
611 13384 7511 1 109.50000 418.400000
611 13384 7512 1 109.50000 418.400000
6450 13384 7511 1 109.50000 418.400000
6450 13384 7512 1 109.50000 418.400000
7511 13384 7512 1 109.50000 418.400000
250 13385 253 1 109.50000 418.400000
250 13385 7515 1 109.50000 418.400000
250 13385 8014 1 109.50000 418.400000
253 13385 7515 1 109.50000 418.400000
253 13385 8014 1 109.50000 418.400000
7515 13385 8014 1 109.50000 418.400000
2255 13386 7436 1 109.50000 418.400000
2255 13386 7516 1 109.50000 418.400000
2255 13386 7517 1 109.50000 418.400000
7436 13386 7516 1 109.50000 418.400000
7436 13386 7517 1 109.50000 418.400000
7516 13386 7517 1 109.50000 418.400000
3270 13387 6433 1 109.50000 418.400000
3270 13387 7518 1 109.50000 418.400000
3270 13387 7519 1 109.50000 418.400000
6433 13387 7518 1 109.50000 418.400000
6433 13387 7519 1 109.50000 418.400000
7518 13387 7519 1 109.50000 418.400000
1395 13388 7520 1 109.50000 418.400000
1395 13388 7521 1 109.50000 418.400000
1395 13388 10248 1 109.50000 418.400000
7520 13388 7521 1 109.50000 418.400000
7520 13388 10248 1 109.50000 418.400000
7521 13388 10248 1 109.50000 418.400000
5638 13389 7523 1 109.50000 418.400000
5638 13389 7524 1 109.50000 418.400000
5638 13389 7525 1 109.50000 418.400000
7523 13389 7524 1 109.50000 418.400000
7523 13389 7525 1 109.50000 418.400000
7524 13389 7525 1 109.50000 418.400000
5875 13390 6971 1 109.50000 418.400000
5875 13390 7526 1 109.50000 418.400000
5875 13390 7527 1 109.50000 418.400000
6971 13390 7526 1 109.50000 418.400000
6971 13390 7527 1 109.50000 418.400000
7526 13390 7527 1 109.50000 418.400000
3395 13391 7530 1 109.50000 418.400000
3395 13391 7531 1 109.50000 418.400000
3395 13391 7532 1 109.50000 418.400000
7530 13391 7531 1 109.50000 418.400000
7530 13391 7532 1 109.50000 418.400000
7531 13391 7532 1 109.50000 418.400000
2501 13392 4382 1 109.50000 418.400000
2501 13392 7533 1 109.50000 418.400000
2501 13392 7534 1 109.50000 418.400000
4382 13392 7533 1 109.50000 418.400000
4382 13392 7534 1 109.50000 418.400000
7533 13392 7534 1 109.50000 418.400000
509 13393 3755 1 109.50000 418.400000
509 13393 5782 1 109.50000 418.400000
509 13393 7535 1 109.50000 418.400000
3755 13393 5782 1 109.50000 418.400000
3755 13393 7535 1 109.50000 418.400000
5782 13393 7535 1 109.50000 418.400000
4482 13394 6977 1 109.50000 418.400000
4482 13394 7536 1 109.50000 418.400000
4482 13394 7537 1 109.50000 418.400000
6977 13394 7536 1 109.50000 418.400000
6977 13394 7537 1 109.50000 418.400000
7536 13394 7537 1 109.50000 418.400000
2580 13395 4724 1 109.50000 418.400000
2580 13395 6989 1 109.50000 418.400000
2580 13395 7538 1 109.50000 418.400000
4724 13395 6989 1 109.50000 418.400000
4724 13395 7538 1 109.50000 418.400000
6989 13395 7538 1 109.50000 418.400000
1266 13396 7497 1 109.50000 418.400000
1266 13396 7539 1 109.50000 418.400000
1266 13396 7540 1 109.50000 418.400000
7497 13396 7539 1 109.50000 418.400000
7497 13396 7540 1 109.50000 418.400000
7539 13396 7540 1 109.50000 418.400000
6965 13397 7541 1 109.50000 418.400000
6965 13397 7542 1 109.50000 418.400000
6965 13397 7543 1 109.50000 418.400000
7541 13397 7542 1 109.50000 418.400000
7541 13397 7543 1 109.50000 418.400000
7542 13397 7543 1 109.50000 418.400000
4488 13398 5114 1 109.50000 418.400000
4488 13398 6041 1 109.50000 418.400000
4488 13398 7544 1 109.50000 418.400000
5114 13398 6041 1 109.50000 418.400000
5114 13398 7544 1 109.50000 418.400000
6041 13398 7544 1 109.50000 418.400000
1585 13399 1636 1 109.50000 418.400000
1585 13399 7545 1 109.50000 418.400000
1585 13399 7546 1 109.50000 418.400000
1636 13399 7545 1 109.50000 418.400000
1636 13399 7546 1 109.50000 418.400000
7545 13399 7546 1 109.50000 418.400000
2467 13400 3774 1 109.50000 418.400000
2467 13400 5031 1 109.50000 418.400000
2467 13400 6952 1 109.50000 418.400000
3774 13400 5031 1 109.50000 418.400000
3774 13400 6952 1 109.50000 418.400000
5031 13400 6952 1 109.50000 418.400000
1239 13401 5907 1 109.50000 418.400000
1239 13401 6844 1 109.50000 418.400000
1239 13401 7547 1 109.50000 418.400000
5907 13401 6844 1 109.50000 418.400000
5907 13401 7547 1 109.50000 418.400000
6844 13401 7547 1 109.50000 418.400000
3495 13402 7548 1 109.50000 418.400000
3495 13402 7549 1 109.50000 418.400000
3495 13402 7550 1 109.50000 418.400000
7548 13402 7549 1 109.50000 418.400000
7548 13402 7550 1 109.50000 418.400000
7549 13402 7550 1 109.50000 418.400000
1702 13403 5775 1 109.50000 418.400000
1702 13403 7551 1 109.50000 418.400000
1702 13403 7552 1 109.50000 418.400000
5775 13403 7551 1 109.50000 418.400000
5775 13403 7552 1 109.50000 418.400000
7551 13403 7552 1 109.50000 418.400000
380 13404 3849 1 109.50000 418.400000
380 13404 7553 1 109.50000 418.400000
380 13404 7554 1 109.50000 418.400000
3849 13404 7553 1 109.50000 418.400000
3849 13404 7554 1 109.50000 418.400000
7553 13404 7554 1 109.50000 418.400000
132 13405 3087 1 109.50000 418.400000
132 13405 3247 1 109.50000 418.400000
132 13405 7555 1 109.50000 418.400000
3087 13405 3247 1 109.50000 418.400000
3087 13405 7555 1 109.50000 418.400000
3247 13405 7555 1 109.50000 418.400000
7483 13406 7556 1 109.50000 418.400000
7483 13406 7557 1 109.50000 418.400000
7483 13406 7558 1 109.50000 418.400000
7556 13406 7557 1 109.50000 418.400000
7556 13406 7558 1 109.50000 418.400000
7557 13406 7558 1 109.50000 418.400000
7560 13407 7561 1 109.50000 418.400000
7560 13407 7562 1 109.50000 418.400000
7560 13407 7563 1 109.50000 418.400000
7561 13407 7562 1 109.50000 418.400000
7561 13407 7563 1 109.50000 418.400000
7562 13407 7563 1 109.50000 418.400000
2759 13408 4407 1 109.50000 418.400000
2759 13408 7564 1 109.50000 418.400000
2759 13408 7565 1 109.50000 418.400000
4407 13408 7564 1 109.50000 418.400000
4407 13408 7565 1 109.50000 418.400000
7564 13408 7565 1 109.50000 418.400000
4915 13409 6716 1 109.50000 418.400000
4915 13409 7403 1 109.50000 418.400000
4915 13409 7566 1 109.50000 418.400000
6716 13409 7403 1 109.50000 418.400000
6716 13409 7566 1 109.50000 418.400000
7403 13409 7566 1 109.50000 418.400000
7128 13410 7567 1 109.50000 418.400000
7128 13410 7569 1 109.50000 418.400000
7128 13410 8469 1 109.50000 418.400000
7567 13410 7569 1 109.50000 418.400000
7567 13410 8469 1 109.50000 418.400000
7569 13410 8469 1 109.50000 418.400000
1341 13411 4199 1 109.50000 418.400000
1341 13411 7571 1 109.50000 418.400000
1341 13411 7572 1 109.50000 418.400000
4199 13411 7571 1 109.50000 418.400000
4199 13411 7572 1 109.50000 418.400000
7571 13411 7572 1 109.50000 418.400000
3803 13412 7573 1 109.50000 418.400000
3803 13412 7574 1 109.50000 418.400000
3803 13412 7575 1 109.50000 418.400000
7573 13412 7574 1 109.50000 418.400000
7573 13412 7575 1 109.50000 418.400000
7574 13412 7575 1 109.50000 418.400000
2018 13413 3322 1 109.50000 418.400000
2018 13413 4153 1 109.50000 418.400000
2018 13413 5236 1 109.50000 418.400000
3322 13413 4153 1 109.50000 418.400000
3322 13413 5236 1 109.50000 418.400000
4153 13413 5236 1 109.50000 418.400000
872 13414 3839 1 109.50000 418.400000
872 13414 6761 1 109.50000 418.400000
872 13414 6999 1 109.50000 418.400000
3839 13414 6761 1 109.50000 418.400000
3839 13414 6999 1 109.50000 418.400000
6761 13414 6999 1 109.50000 418.400000
1672 13415 4225 1 109.50000 418.400000
1672 13415 7576 1 109.50000 418.400000
1672 13415 7577 1 109.50000 418.400000
4225 13415 7576 1 109.50000 418.400000
4225 13415 7577 1 109.50000 418.400000
7576 13415 7577 1 109.50000 418.400000
805 13416 1374 1 109.50000 418.400000
805 13416 5787 1 109.50000 418.400000
805 13416 7578 1 109.50000 418.400000
1374 13416 5787 1 109.50000 418.400000
1374 13416 7578 1 109.50000 418.400000
5787 13416 7578 1 109.50000 418.400000
5646 13417 7579 1 109.50000 418.400000
5646 13417 7580 1 109.50000 418.400000
5646 13417 7581 1 109.50000 418.400000
7579 13417 7580 1 109.50000 418.400000
7579 13417 7581 1 109.50000 418.400000
7580 13417 7581 1 109.50000 418.400000
1404 13418 5350 1 109.50000 418.400000
1404 13418 7135 1 109.50000 418.400000
1404 13418 7582 1 109.50000 418.400000
5350 13418 7135 1 109.50000 418.400000
5350 13418 7582 1 109.50000 418.400000
7135 13418 7582 1 109.50000 418.400000
2089 13419 3391 1 109.50000 418.400000
2089 13419 6668 1 109.50000 418.400000
2089 13419 7583 1 109.50000 418.400000
3391 13419 6668 1 109.50000 418.400000
3391 13419 7583 1 109.50000 418.400000
6668 13419 7583 1 109.50000 418.400000
2368 13420 5086 1 109.50000 418.400000
2368 13420 7584 1 109.50000 418.400000
2368 13420 7585 1 109.50000 418.400000
5086 13420 7584 1 109.50000 418.400000
5086 13420 7585 1 109.50000 418.400000
7584 13420 7585 1 109.50000 418.400000
1422 13421 7189 1 109.50000 418.400000
1422 13421 7586 1 109.50000 418.400000
1422 13421 7587 1 109.50000 418.400000
7189 13421 7586 1 109.50000 418.400000
7189 13421 7587 1 109.50000 418.400000
7586 13421 7587 1 109.50000 418.400000
7351 13422 7588 1 109.50000 418.400000
7351 13422 7589 1 109.50000 418.400000
7351 13422 7590 1 109.50000 418.400000
7588 13422 7589 1 109.50000 418.400000
7588 13422 7590 1 109.50000 418.400000
7589 13422 7590 1 109.50000 418.400000
4752 13423 7591 1 109.50000 418.400000
4752 13423 7592 1 109.50000 418.400000
4752 13423 7593 1 109.50000 418.400000
7591 13423 7592 1 109.50000 418.400000
7591 13423 7593 1 109.50000 418.400000
7592 13423 7593 1 109.50000 418.400000
5621 13424 7594 1 109.50000 418.400000
5621 13424 7595 1 109.50000 418.400000
5621 13424 7596 1 109.50000 418.400000
7594 13424 7595 1 109.50000 418.400000
7594 13424 7596 1 109.50000 418.400000
7595 13424 7596 1 109.50000 418.400000
952 13425 2136 1 109.50000 418.400000
952 13425 7597 1 109.50000 418.400000
952 13425 7598 1 109.50000 418.400000
2136 13425 7597 1 109.50000 418.400000
2136 13425 7598 1 109.50000 418.400000
7597 13425 7598 1 109.50000 418.400000
6033 13426 6651 1 109.50000 418.400000
6033 13426 7599 1 109.50000 418.400000
6033 13426 7600 1 109.50000 418.400000
6651 13426 7599 1 109.50000 418.400000
6651 13426 7600 1 109.50000 418.400000
7599 13426 7600 1 109.50000 418.400000
189 13427 5291 1 109.50000 418.400000
189 13427 7601 1 109.50000 418.400000
189 13427 7602 1 109.50000 418.400000
5291 13427 7601 1 109.50000 418.400000
5291 13427 7602 1 109.50000 418.400000
7601 13427 7602 1 109.50000 418.400000
6164 13428 7604 1 109.50000 418.400000
6164 13428 7605 1 109.50000 418.400000
6164 13428 7606 1 109.50000 418.400000
7604 13428 7605 1 109.50000 418.400000
7604 13428 7606 1 109.50000 418.400000
7605 13428 7606 1 109.50000 418.400000
2862 13429 3173 1 109.50000 418.400000
2862 13429 4751 1 109.50000 418.400000
2862 13429 7607 1 109.50000 418.400000
3173 13429 4751 1 109.50000 418.400000
3173 13429 7607 1 109.50000 418.400000
4751 13429 7607 1 109.50000 418.400000
2739 13430 2933 1 109.50000 418.400000
2739 13430 7608 1 109.50000 418.400000
2739 13430 7609 1 109.50000 418.400000
2933 13430 7608 1 109.50000 418.400000
2933 13430 7609 1 109.50000 418.400000
7608 13430 7609 1 109.50000 418.400000
4005 13431 5367 1 109.50000 418.400000
4005 13431 7601 1 109.50000 418.400000
4005 13431 7610 1 109.50000 418.400000
5367 13431 7601 1 109.50000 418.400000
5367 13431 7610 1 109.50000 418.400000
7601 13431 7610 1 109.50000 418.400000
2875 13432 3329 1 109.50000 418.400000
2875 13432 3804 1 109.50000 418.400000
2875 13432 7611 1 109.50000 418.400000
3329 13432 3804 1 109.50000 418.400000
3329 13432 7611 1 109.50000 418.400000
3804 13432 7611 1 109.50000 418.400000
7613 13433 7614 1 109.50000 418.400000
7613 13433 10414 1 109.50000 418.400000
7613 13433 10513 1 109.50000 418.400000
7614 13433 10414 1 109.50000 418.400000
7614 13433 10513 1 109.50000 418.400000
10414 13433 10513 1 109.50000 418.400000
2093 13434 7615 1 109.50000 418.400000
2093 13434 7616 1 109.50000 418.400000
2093 13434 7617 1 109.50000 418.400000
7615 13434 7616 1 109.50000 418.400000
7615 13434 7617 1 109.50000 418.400000
7616 13434 7617 1 109.50000 418.400000
2726 13435 3699 1 109.50000 418.400000
2726 13435 6755 1 109.50000 418.400000
2726 13435 6943 1 109.50000 418.400000
3699 13435 6755 1 109.50000 418.400000
3699 13435 6943 1 109.50000 418.400000
6755 13435 6943 1 109.50000 418.400000
1401 13436 7618 1 109.50000 418.400000
1401 13436 7619 1 109.50000 418.400000
1401 13436 7620 1 109.50000 418.400000
7618 13436 7619 1 109.50000 418.400000
7618 13436 7620 1 109.50000 418.400000
7619 13436 7620 1 109.50000 418.400000
3446 13437 7621 1 109.50000 418.400000
3446 13437 7622 1 109.50000 418.400000
3446 13437 7623 1 109.50000 418.400000
7621 13437 7622 1 109.50000 418.400000
7621 13437 7623 1 109.50000 418.400000
7622 13437 7623 1 109.50000 418.400000
159 13438 7629 1 109.50000 418.400000
159 13438 7630 1 109.50000 418.400000
159 13438 7631 1 109.50000 418.400000
7629 13438 7630 1 109.50000 418.400000
7629 13438 7631 1 109.50000 418.400000
7630 13438 7631 1 109.50000 418.400000
7632 13439 7633 1 109.50000 418.400000
7632 13439 7634 1 109.50000 418.400000
7632 13439 7635 1 109.50000 418.400000
7633 13439 7634 1 109.50000 418.400000
7633 13439 7635 1 109.50000 418.400000
7634 13439 7635 1 109.50000 418.400000
5644 13440 7637 1 109.50000 418.400000
5644 13440 7638 1 109.50000 418.400000
5644 13440 7639 1 109.50000 418.400000
7637 13440 7638 1 109.50000 418.400000
7637 13440 7639 1 109.50000 418.400000
7638 13440 7639 1 109.50000 418.400000
6338 13441 7398 1 109.50000 418.400000
6338 13441 7640 1 109.50000 418.400000
6338 13441 7641 1 109.50000 418.400000
7398 13441 7640 1 109.50000 418.400000
7398 13441 7641 1 109.50000 418.400000
7640 13441 7641 1 109.50000 418.400000
5656 13442 5679 1 109.50000 418.400000
5656 13442 7642 1 109.50000 418.400000
5656 13442 7643 1 109.50000 418.400000
5679 13442 7642 1 109.50000 418.400000
5679 13442 7643 1 109.50000 418.400000
7642 13442 7643 1 109.50000 418.400000
6194 13443 7645 1 109.50000 418.400000
6194 13443 7646 1 109.50000 418.400000
6194 13443 10872 1 109.50000 418.400000
7645 13443 7646 1 109.50000 418.400000
7645 13443 10872 1 109.50000 418.400000
7646 13443 10872 1 109.50000 418.400000
1499 13444 3858 1 109.50000 418.400000
1499 13444 7647 1 109.50000 418.400000
1499 13444 7648 1 109.50000 418.400000
3858 13444 7647 1 109.50000 418.400000
3858 13444 7648 1 109.50000 418.400000
7647 13444 7648 1 109.50000 418.400000
1368 13445 4762 1 109.50000 418.400000
1368 13445 7649 1 109.50000 418.400000
1368 13445 7650 1 109.50000 418.400000
4762 13445 7649 1 109.50000 418.400000
4762 13445 7650 1 109.50000 418.400000
7649 13445 7650 1 109.50000 418.400000
5242 13446 7651 1 109.50000 418.400000
5242 13446 7652 1 109.50000 418.400000
5242 13446 7653 1 109.50000 418.400000
7651 13446 7652 1 109.50000 418.400000
7651 13446 7653 1 109.50000 418.400000
7652 13446 7653 1 109.50000 418.400000
353 13447 2357 1 109.50000 418.400000
353 13447 2976 1 109.50000 418.400000
353 13447 7654 1 109.50000 418.400000
2357 13447 2976 1 109.50000 418.400000
2357 13447 7654 1 109.50000 418.400000
2976 13447 7654 1 109.50000 418.400000
141 13448 693 1 109.50000 418.400000
141 13448 5601 1 109.50000 418.400000
141 13448 7656 1 109.50000 418.400000
693 13448 5601 1 109.50000 418.400000
693 13448 7656 1 109.50000 418.400000
5601 13448 7656 1 109.50000 418.400000
167 13449 4231 1 109.50000 418.400000
167 13449 4658 1 109.50000 418.400000
167 13449 7657 1 109.50000 418.400000
4231 13449 4658 1 109.50000 418.400000
4231 13449 7657 1 109.50000 418.400000
4658 13449 7657 1 109.50000 418.400000
3311 13450 3533 1 109.50000 418.400000
3311 13450 7659 1 109.50000 418.400000
3311 13450 7660 1 109.50000 418.400000
3533 13450 7659 1 109.50000 418.400000
3533 13450 7660 1 109.50000 418.400000
7659 13450 7660 1 109.50000 418.400000
2662 13451 5047 1 109.50000 418.400000
2662 13451 5115 1 109.50000 418.400000
2662 13451 7212 1 109.50000 418.400000
5047 13451 5115 1 109.50000 418.400000
5047 13451 7212 1 109.50000 418.400000
5115 13451 7212 1 109.50000 418.400000
1812 13452 4012 1 109.50000 418.400000
1812 13452 5247 1 109.50000 418.400000
1812 13452 7667 1 109.50000 418.400000
4012 13452 5247 1 109.50000 418.400000
4012 13452 7667 1 109.50000 418.400000
5247 13452 7667 1 109.50000 418.400000
495 13453 497 1 109.50000 418.400000
495 13453 6622 1 109.50000 418.400000
495 13453 7668 1 109.50000 418.400000
497 13453 6622 1 109.50000 418.400000
497 13453 7668 1 109.50000 418.400000
6622 13453 7668 1 109.50000 418.400000
5962 13454 5976 1 109.50000 418.400000
5962 13454 7671 1 109.50000 418.400000
5962 13454 9979 1 109.50000 418.400000
5976 13454 7671 1 109.50000 418.400000
5976 13454 9979 1 109.50000 418.400000
7671 13454 9979 1 109.50000 418.400000
3766 13455 4059 1 109.50000 418.400000
3766 13455 5711 1 109.50000 418.400000
3766 13455 7673 1 109.50000 418.400000
4059 13455 5711 1 109.50000 418.400000
4059 13455 7673 1 109.50000 418.400000
5711 13455 7673 1 109.50000 418.400000
5028 13456 5029 1 109.50000 418.400000
5028 13456 6323 1 109.50000 418.400000
5028 13456 7674 1 109.50000 418.400000
5029 13456 6323 1 109.50000 418.400000
5029 13456 7674 1 109.50000 418.400000
6323 13456 7674 1 109.50000 418.400000
684 13457 7675 1 109.50000 418.400000
684 13457 7676 1 109.50000 418.400000
684 13457 7677 1 109.50000 418.400000
7675 13457 7676 1 109.50000 418.400000
7675 13457 7677 1 109.50000 418.400000
7676 13457 7677 1 109.50000 418.400000
697 13458 7678 1 109.50000 418.400000
697 13458 7679 1 109.50000 418.400000
697 13458 7680 1 109.50000 418.400000
7678 13458 7679 1 109.50000 418.400000
7678 13458 7680 1 109.50000 418.400000
7679 13458 7680 1 109.50000 418.400000
725 13459 5429 1 109.50000 418.400000
725 13459 7681 1 109.50000 418.400000
725 13459 7682 1 109.50000 418.400000
5429 13459 7681 1 109.50000 418.400000
5429 13459 7682 1 109.50000 418.400000
7681 13459 7682 1 109.50000 418.400000
1550 13460 7683 1 109.50000 418.400000
1550 13460 7684 1 109.50000 418.400000
1550 13460 7685 1 109.50000 418.400000
7683 13460 7684 1 109.50000 418.400000
7683 13460 7685 1 109.50000 418.400000
7684 13460 7685 1 109.50000 418.400000
3634 13461 5303 1 109.50000 418.400000
3634 13461 5798 1 109.50000 418.400000
3634 13461 6580 1 109.50000 418.400000
5303 13461 5798 1 109.50000 418.400000
5303 13461 6580 1 109.50000 418.400000
5798 13461 6580 1 109.50000 418.400000
2858 13462 2861 1 109.50000 418.400000
2858 13462 7689 1 109.50000 418.400000
2858 13462 7690 1 109.50000 418.400000
2861 13462 7689 1 109.50000 418.400000
2861 13462 7690 1 109.50000 418.400000
7689 13462 7690 1 109.50000 418.400000
6215 13463 6696 1 109.50000 418.400000
6215 13463 7691 1 109.50000 418.400000
6215 13463 7692 1 109.50000 418.400000
6696 13463 7691 1 109.50000 418.400000
6696 13463 7692 1 109.50000 418.400000
7691 13463 7692 1 109.50000 418.400000
7694 13464 7695 1 109.50000 418.400000
7694 13464 7696 1 109.50000 418.400000
7694 13464 8801 1 109.50000 418.400000
7695 13464 7696 1 109.50000 418.400000
7695 13464 8801 1 109.50000 418.400000
7696 13464 8801 1 109.50000 418.400000
2966 13465 4196 1 109.50000 418.400000
2966 13465 7697 1 109.50000 418.400000
2966 13465 7698 1 109.50000 418.400000
4196 13465 7697 1 109.50000 418.400000
4196 13465 7698 1 109.50000 418.400000
7697 13465 7698 1 109.50000 418.400000
3261 13466 3618 1 109.50000 418.400000
3261 13466 7700 1 109.50000 418.400000
3261 13466 7701 1 109.50000 418.400000
3618 13466 7700 1 109.50000 418.400000
3618 13466 7701 1 109.50000 418.400000
7700 13466 7701 1 109.50000 418.400000
5199 13467 7479 1 109.50000 418.400000
5199 13467 7702 1 109.50000 418.400000
5199 13467 7703 1 109.50000 418.400000
7479 13467 7702 1 109.50000 418.400000
7479 13467 7703 1 109.50000 418.400000
7702 13467 7703 1 109.50000 418.400000
3097 13468 7054 1 109.50000 418.400000
3097 13468 7704 1 109.50000 418.400000
3097 13468 7705 1 109.50000 418.400000
7054 13468 7704 1 109.50000 418.400000
7054 13468 7705 1 109.50000 418.400000
7704 13468 7705 1 109.50000 418.400000
5575 13469 7491 1 109.50000 418.400000
5575 13469 7706 1 109.50000 418.400000
5575 13469 7707 1 109.50000 418.400000
7491 13469 7706 1 109.50000 418.400000
7491 13469 7707 1 109.50000 418.400000
7706 13469 7707 1 109.50000 418.400000
6443 13470 7708 1 109.50000 418.400000
6443 13470 7709 1 109.50000 418.400000
6443 13470 7710 1 109.50000 418.400000
7708 13470 7709 1 109.50000 418.400000
7708 13470 7710 1 109.50000 418.400000
7709 13470 7710 1 109.50000 418.400000
2772 13471 2773 1 109.50000 418.400000
2772 13471 7713 1 109.50000 418.400000
2772 13471 7714 1 109.50000 418.400000
2773 13471 7713 1 109.50000 418.400000
2773 13471 7714 1 109.50000 418.400000
7713 13471 7714 1 109.50000 418.400000
3008 13472 7715 1 109.50000 418.400000
3008 13472 7716 1 109.50000 418.400000
3008 13472 7717 1 109.50000 418.400000
7715 13472 7716 1 109.50000 418.400000
7715 13472 7717 1 109.50000 418.400000
7716 13472 7717 1 109.50000 418.400000
5712 13473 7718 1 109.50000 418.400000
5712 13473 7719 1 109.50000 418.400000
5712 13473 7720 1 109.50000 418.400000
7718 13473 7719 1 109.50000 418.400000
7718 13473 7720 1 109.50000 418.400000
7719 13473 7720 1 109.50000 418.400000
1836 13474 3065 1 109.50000 418.400000
1836 13474 7256 1 109.50000 418.400000
1836 13474 7721 1 109.50000 418.400000
3065 13474 7256 1 109.50000 418.400000
3065 13474 7721 1 109.50000 418.400000
7256 13474 7721 1 109.50000 418.400000
7722 13475 7723 1 109.50000 418.400000
7722 13475 7724 1 109.50000 418.400000
7722 13475 7725 1 109.50000 418.400000
7723 13475 7724 1 109.50000 418.400000
7723 13475 7725 1 109.50000 418.400000
7724 13475 7725 1 109.50000 418.400000
4362 13476 7726 1 109.50000 418.400000
4362 13476 7727 1 109.50000 418.400000
4362 13476 7728 1 109.50000 418.400000
7726 13476 7727 1 109.50000 418.400000
7726 13476 7728 1 109.50000 418.400000
7727 13476 7728 1 109.50000 418.400000
6028 13477 6051 1 109.50000 418.400000
6028 13477 7729 1 109.50000 418.400000
6028 13477 7730 1 109.50000 418.400000
6051 13477 7729 1 109.50000 418.400000
6051 13477 7730 1 109.50000 418.400000
7729 13477 7730 1 109.50000 418.400000
1437 13478 4166 1 109.50000 418.400000
1437 13478 6888 1 109.50000 418.400000
1437 13478 7731 1 109.50000 418.400000
4166 13478 6888 1 109.50000 418.400000
4166 13478 7731 1 109.50000 418.400000
6888 13478 7731 1 109.50000 418.400000
7732 13479 7733 1 109.50000 418.400000
7732 13479 7734 1 109.50000 418.400000
7732 13479 11250 1 109.50000 418.400000
7733 13479 7734 1 109.50000 418.400000
7733 13479 11250 1 109.50000 418.400000
7734 13479 11250 1 109.50000 418.400000
931 13480 7735 1 109.50000 418.400000
931 13480 7736 1 109.50000 418.400000
931 13480 7737 1 109.50000 418.400000
7735 13480 7736 1 109.50000 418.400000
7735 13480 7737 1 109.50000 418.400000
7736 13480 7737 1 109.50000 418.400000
6963 13481 6964 1 109.50000 418.400000
6963 13481 7738 1 109.50000 418.400000
6963 13481 7740 1 109.50000 418.400000
6964 13481 7738 1 109.50000 418.400000
6964 13481 7740 1 109.50000 418.400000
7738 13481 7740 1 109.50000 418.400000
7741 13482 7742 1 109.50000 418.400000
7741 13482 7743 1 109.50000 418.400000
7741 13482 7744 1 109.50000 418.400000
7742 13482 7743 1 109.50000 418.400000
7742 13482 7744 1 109.50000 418.400000
7743 13482 7744 1 109.50000 418.400000
1546 13483 1628 1 109.50000 418.400000
1546 13483 5328 1 109.50000 418.400000
1546 13483 7745 1 109.50000 418.400000
1628 13483 5328 1 109.50000 418.400000
1628 13483 7745 1 109.50000 418.400000
5328 13483 7745 1 109.50000 418.400000
7746 13484 7747 1 109.50000 418.400000
7746 13484 7748 1 109.50000 418.400000
7746 13484 7749 1 109.50000 418.400000
7747 13484 7748 1 109.50000 418.400000
7747 13484 7749 1 109.50000 418.400000
7748 13484 7749 1 109.50000 418.400000
131 13485 4197 1 109.50000 418.400000
131 13485 4376 1 109.50000 418.400000
131 13485 5918 1 109.50000 418.400000
4197 13485 4376 1 109.50000 418.400000
4197 13485 5918 1 109.50000 418.400000
4376 13485 5918 1 109.50000 418.400000
3403 13486 6023 1 109.50000 418.400000
3403 13486 7750 1 109.50000 418.400000
3403 13486 7751 1 109.50000 418.400000
6023 13486 7750 1 109.50000 418.400000
6023 13486 7751 1 109.50000 418.400000
7750 13486 7751 1 109.50000 418.400000
1952 13487 7752 1 109.50000 418.400000
1952 13487 7753 1 109.50000 418.400000
1952 13487 7754 1 109.50000 418.400000
7752 13487 7753 1 109.50000 418.400000
7752 13487 7754 1 109.50000 418.400000
7753 13487 7754 1 109.50000 418.400000
3698 13488 7755 1 109.50000 418.400000
3698 13488 7756 1 109.50000 418.400000
3698 13488 7757 1 109.50000 418.400000
7755 13488 7756 1 109.50000 418.400000
7755 13488 7757 1 109.50000 418.400000
7756 13488 7757 1 109.50000 418.400000
1507 13489 4319 1 109.50000 418.400000
1507 13489 4320 1 109.50000 418.400000
1507 13489 7758 1 109.50000 418.400000
4319 13489 4320 1 109.50000 418.400000
4319 13489 7758 1 109.50000 418.400000
4320 13489 7758 1 109.50000 418.400000
5010 13490 5011 1 109.50000 418.400000
5010 13490 6789 1 109.50000 418.400000
5010 13490 7760 1 109.50000 418.400000
5011 13490 6789 1 109.50000 418.400000
5011 13490 7760 1 109.50000 418.400000
6789 13490 7760 1 109.50000 418.400000
657 13491 1619 1 109.50000 418.400000
657 13491 1620 1 109.50000 418.400000
657 13491 4846 1 109.50000 418.400000
1619 13491 1620 1 109.50000 418.400000
1619 13491 4846 1 109.50000 418.400000
1620 13491 4846 1 109.50000 418.400000
4933 13492 7762 1 109.50000 418.400000
4933 13492 7764 1 109.50000 418.400000
4933 13492 8150 1 109.50000 418.400000
7762 13492 7764 1 109.50000 418.400000
7762 13492 8150 1 109.50000 418.400000
7764 13492 8150 1 109.50000 418.400000
1609 13493 1612 1 109.50000 418.400000
1609 13493 7766 1 109.50000 418.400000
1609 13493 7767 1 109.50000 418.400000
1612 13493 7766 1 109.50000 418.400000
1612 13493 7767 1 109.50000 418.400000
7766 13493 7767 1 109.50000 418.400000
1570 13494 3969 1 109.50000 418.400000
1570 13494 7367 1 109.50000 418.400000
1570 13494 7768 1 109.50000 418.400000
3969 13494 7367 1 109.50000 418.400000
3969 13494 7768 1 109.50000 418.400000
7367 13494 7768 1 109.50000 418.400000
4592 13495 7771 1 109.50000 418.400000
4592 13495 7772 1 109.50000 418.400000
4592 13495 7773 1 109.50000 418.400000
7771 13495 7772 1 109.50000 418.400000
7771 13495 7773 1 109.50000 418.400000
7772 13495 7773 1 109.50000 418.400000
1066 13496 6957 1 109.50000 418.400000
1066 13496 7775 1 109.50000 418.400000
1066 13496 7776 1 109.50000 418.400000
6957 13496 7775 1 109.50000 418.400000
6957 13496 7776 1 109.50000 418.400000
7775 13496 7776 1 109.50000 418.400000
3953 13497 4260 1 109.50000 418.400000
3953 13497 5193 1 109.50000 418.400000
3953 13497 7777 1 109.50000 418.400000
4260 13497 5193 1 109.50000 418.400000
4260 13497 7777 1 109.50000 418.400000
5193 13497 7777 1 109.50000 418.400000
2267 13498 6592 1 109.50000 418.400000
2267 13498 7778 1 109.50000 418.400000
2267 13498 7779 1 109.50000 418.400000
6592 13498 7778 1 109.50000 418.400000
6592 13498 7779 1 109.50000 418.400000
7778 13498 7779 1 109.50000 418.400000
7326 13499 7328 1 109.50000 418.400000
7326 13499 7780 1 109.50000 418.400000
7326 13499 7782 1 109.50000 418.400000
7328 13499 7780 1 109.50000 418.400000
7328 13499 7782 1 109.50000 418.400000
7780 13499 7782 1 109.50000 418.400000
2243 13500 7169 1 109.50000 418.400000
2243 13500 7786 1 109.50000 418.400000
2243 13500 7787 1 109.50000 418.400000
7169 13500 7786 1 109.50000 418.400000
7169 13500 7787 1 109.50000 418.400000
7786 13500 7787 1 109.50000 418.400000
7492 13501 7788 1 109.50000 418.400000
7492 13501 7789 1 109.50000 418.400000
7492 13501 7790 1 109.50000 418.400000
7788 13501 7789 1 109.50000 418.400000
7788 13501 7790 1 109.50000 418.400000
7789 13501 7790 1 109.50000 418.400000
5518 13502 6024 1 109.50000 418.400000
5518 13502 6652 1 109.50000 418.400000
5518 13502 7791 1 109.50000 418.400000
6024 13502 6652 1 109.50000 418.400000
6024 13502 7791 1 109.50000 418.400000
6652 13502 7791 1 109.50000 418.400000
4797 13503 6583 1 109.50000 418.400000
4797 13503 7453 1 109.50000 418.400000
4797 13503 7792 1 109.50000 418.400000
6583 13503 7453 1 109.50000 418.400000
6583 13503 7792 1 109.50000 418.400000
7453 13503 7792 1 109.50000 418.400000
6986 13504 7793 1 109.50000 418.400000
6986 13504 7794 1 109.50000 418.400000
6986 13504 7795 1 109.50000 418.400000
7793 13504 7794 1 109.50000 418.400000
7793 13504 7795 1 109.50000 418.400000
7794 13504 7795 1 109.50000 418.400000
4926 13505 5934 1 109.50000 418.400000
4926 13505 7796 1 109.50000 418.400000
4926 13505 7797 1 109.50000 418.400000
5934 13505 7796 1 109.50000 418.400000
5934 13505 7797 1 109.50000 418.400000
7796 13505 7797 1 109.50000 418.400000
1590 13506 4048 1 109.50000 418.400000
1590 13506 6551 1 109.50000 418.400000
1590 13506 6552 1 109.50000 418.400000
4048 13506 6551 1 109.50000 418.400000
4048 13506 6552 1 109.50000 418.400000
6551 13506 6552 1 109.50000 418.400000
5881 13507 7186 1 109.50000 418.400000
5881 13507 7798 1 109.50000 418.400000
5881 13507 7799 1 109.50000 418.400000
7186 13507 7798 1 109.50000 418.400000
7186 13507 7799 1 109.50000 418.400000
7798 13507 7799 1 109.50000 418.400000
2315 13508 6753 1 109.50000 418.400000
2315 13508 7801 1 109.50000 418.400000
2315 13508 7802 1 109.50000 418.400000
6753 13508 7801 1 109.50000 418.400000
6753 13508 7802 1 109.50000 418.400000
7801 13508 7802 1 109.50000 418.400000
4883 13509 5535 1 109.50000 418.400000
4883 13509 7178 1 109.50000 418.400000
4883 13509 7803 1 109.50000 418.400000
5535 13509 7178 1 109.50000 418.400000
5535 13509 7803 1 109.50000 418.400000
7178 13509 7803 1 109.50000 418.400000
1268 13510 1335 1 109.50000 418.400000
1268 13510 4324 1 109.50000 418.400000
1268 13510 7804 1 109.50000 418.400000
1335 13510 4324 1 109.50000 418.400000
1335 13510 7804 1 109.50000 418.400000
4324 13510 7804 1 109.50000 418.400000
5121 13511 5486 1 109.50000 418.400000
5121 13511 5774 1 109.50000 418.400000
5121 13511 7807 1 109.50000 418.400000
5486 13511 5774 1 109.50000 418.400000
5486 13511 7807 1 109.50000 418.400000
5774 13511 7807 1 109.50000 418.400000
7808 13512 7809 1 109.50000 418.400000
7808 13512 7810 1 109.50000 418.400000
7808 13512 7811 1 109.50000 418.400000
7809 13512 7810 1 109.50000 418.400000
7809 13512 7811 1 109.50000 418.400000
7810 13512 7811 1 109.50000 418.400000
93 13513 4873 1 109.50000 418.400000
93 13513 7814 1 109.50000 418.400000
93 13513 7815 1 109.50000 418.400000
4873 13513 7814 1 109.50000 418.400000
4873 13513 7815 1 109.50000 418.400000
7814 13513 7815 1 109.50000 418.400000
899 13514 933 1 109.50000 418.400000
899 13514 7816 1 109.50000 418.400000
899 13514 7817 1 109.50000 418.400000
933 13514 7816 1 109.50000 418.400000
933 13514 7817 1 109.50000 418.400000
7816 13514 7817 1 109.50000 418.400000
3629 13515 3630 1 109.50000 418.400000
3629 13515 6010 1 109.50000 418.400000
3629 13515 6662 1 109.50000 418.400000
3630 13515 6010 1 109.50000 418.400000
3630 13515 6662 1 109.50000 418.400000
6010 13515 6662 1 109.50000 418.400000
3554 13516 5002 1 109.50000 418.400000
3554 13516 7821 1 109.50000 418.400000
3554 13516 7822 1 109.50000 418.400000
5002 13516 7821 1 109.50000 418.400000
5002 13516 7822 1 109.50000 418.400000
7821 13516 7822 1 109.50000 418.400000
7565 13517 7823 1 109.50000 418.400000
7565 13517 7824 1 109.50000 418.400000
7565 13517 7825 1 109.50000 418.400000
7823 13517 7824 1 109.50000 418.400000
7823 13517 7825 1 109.50000 418.400000
7824 13517 7825 1 109.50000 418.400000
1552 13518 4783 1 109.50000 418.400000
1552 13518 7103 1 109.50000 418.400000
1552 13518 7590 1 109.50000 418.400000
4783 13518 7103 1 109.50000 418.400000
4783 13518 7590 1 109.50000 418.400000
7103 13518 7590 1 109.50000 418.400000
5780 13519 6084 1 109.50000 418.400000
5780 13519 7826 1 109.50000 418.400000
5780 13519 7827 1 109.50000 418.400000
6084 13519 7826 1 109.50000 418.400000
6084 13519 7827 1 109.50000 418.400000
7826 13519 7827 1 109.50000 418.400000
1913 13520 5958 1 109.50000 418.400000
1913 13520 7828 1 109.50000 418.400000
1913 13520 7829 1 109.50000 418.400000
5958 13520 7828 1 109.50000 418.400000
5958 13520 7829 1 109.50000 418.400000
7828 13520 7829 1 109.50000 418.400000
3943 13521 7386 1 109.50000 418.400000
3943 13521 7830 1 109.50000 418.400000
3943 13521 7831 1 109.50000 418.400000
7386 13521 7830 1 109.50000 418.400000
7386 13521 7831 1 109.50000 418.400000
7830 13521 7831 1 109.50000 418.400000
187 13522 5144 1 109.50000 418.400000
187 13522 7650 1 109.50000 418.400000
187 13522 7833 1 109.50000 418.400000
5144 13522 7650 1 109.50000 418.400000
5144 13522 7833 1 109.50000 418.400000
7650 13522 7833 1 109.50000 418.400000
1663 13523 7834 1 109.50000 418.400000
1663 13523 7835 1 109.50000 418.400000
1663 13523 7836 1 109.50000 418.400000
7834 13523 7835 1 109.50000 418.400000
7834 13523 7836 1 109.50000 418.400000
7835 13523 7836 1 109.50000 418.400000
1276 13524 1995 1 109.50000 418.400000
1276 13524 7837 1 109.50000 418.400000
1276 13524 7838 1 109.50000 418.400000
1995 13524 7837 1 109.50000 418.400000
1995 13524 7838 1 109.50000 418.400000
7837 13524 7838 1 109.50000 418.400000
3817 13525 5383 1 109.50000 418.400000
3817 13525 7173 1 109.50000 418.400000
3817 13525 7839 1 109.50000 418.400000
5383 13525 7173 1 109.50000 418.400000
5383 13525 7839 1 109.50000 418.400000
7173 13525 7839 1 109.50000 418.400000
2224 13526 2377 1 109.50000 418.400000
2224 13526 7840 1 109.50000 418.400000
2224 13526 7841 1 109.50000 418.400000
2377 13526 7840 1 109.50000 418.400000
2377 13526 7841 1 109.50000 418.400000
7840 13526 7841 1 109.50000 418.400000
1117 13527 1510 1 109.50000 418.400000
1117 13527 7846 1 109.50000 418.400000
1117 13527 7847 1 109.50000 418.400000
1510 13527 7846 1 109.50000 418.400000
1510 13527 7847 1 109.50000 418.400000
7846 13527 7847 1 109.50000 418.400000
6537 13528 7847 1 109.50000 418.400000
6537 13528 7848 1 109.50000 418.400000
6537 13528 7849 1 109.50000 418.400000
7847 13528 7848 1 109.50000 418.400000
7847 13528 7849 1 109.50000 418.400000
7848 13528 7849 1 109.50000 418.400000
2304 13529 7850 1 109.50000 418.400000
2304 13529 7852 1 109.50000 418.400000
2304 13529 9974 1 109.50000 418.400000
7850 13529 7852 1 109.50000 418.400000
7850 13529 9974 1 109.50000 418.400000
7852 13529 9974 1 109.50000 418.400000
3962 13530 6311 1 109.50000 418.400000
3962 13530 6851 1 109.50000 418.400000
3962 13530 7853 1 109.50000 418.400000
6311 13530 6851 1 109.50000 418.400000
6311 13530 7853 1 109.50000 418.400000
6851 13530 7853 1 109.50000 418.400000
1874 13531 3984 1 109.50000 418.400000
1874 13531 7854 1 109.50000 418.400000
1874 13531 7855 1 109.50000 418.400000
3984 13531 7854 1 109.50000 418.400000
3984 13531 7855 1 109.50000 418.400000
7854 13531 7855 1 109.50000 418.400000
7162 13532 7856 1 109.50000 418.400000
7162 13532 7857 1 109.50000 418.400000
7162 13532 7858 1 109.50000 418.400000
7856 13532 7857 1 109.50000 418.400000
7856 13532 7858 1 109.50000 418.400000
7857 13532 7858 1 109.50000 418.400000
5416 13533 6547 1 109.50000 418.400000
5416 13533 7860 1 109.50000 418.400000
5416 13533 7861 1 109.50000 418.400000
6547 13533 7860 1 109.50000 418.400000
6547 13533 7861 1 109.50000 418.400000
7860 13533 7861 1 109.50000 418.400000
3191 13534 7862 1 109.50000 418.400000
3191 13534 7863 1 109.50000 418.400000
3191 13534 7864 1 109.50000 418.400000
7862 13534 7863 1 109.50000 418.400000
7862 13534 7864 1 109.50000 418.400000
7863 13534 7864 1 109.50000 418.400000
7865 13535 7866 1 109.50000 418.400000
7865 13535 7867 1 109.50000 418.400000
7865 13535 7868 1 109.50000 418.400000
7866 13535 7867 1 109.50000 418.400000
7866 13535 7868 1 109.50000 418.400000
7867 13535 7868 1 109.50000 418.400000
3344 13536 3561 1 109.50000 418.400000
3344 13536 5630 1 109.50000 418.400000
3344 13536 5871 1 109.50000 418.400000
3561 13536 5630 1 109.50000 418.400000
3561 13536 5871 1 109.50000 418.400000
5630 13536 5871 1 109.50000 418.400000
4483 13537 7201 1 109.50000 418.400000
4483 13537 7869 1 109.50000 418.400000
4483 13537 7870 1 109.50000 418.400000
7201 13537 7869 1 109.50000 418.400000
7201 13537 7870 1 109.50000 418.400000
7869 13537 7870 1 109.50000 418.400000
2576 13538 5052 1 109.50000 418.400000
2576 13538 7871 1 109.50000 418.400000
2576 13538 7872 1 109.50000 418.400000
5052 13538 7871 1 109.50000 418.400000
5052 13538 7872 1 109.50000 418.400000
7871 13538 7872 1 109.50000 418.400000
5604 13539 6277 1 109.50000 418.400000
5604 13539 7873 1 109.50000 418.400000
5604 13539 7874 1 109.50000 418.400000
6277 13539 7873 1 109.50000 418.400000
6277 13539 7874 1 109.50000 418.400000
7873 13539 7874 1 109.50000 418.400000
4213 13540 7875 1 109.50000 418.400000
4213 13540 7876 1 109.50000 418.400000
4213 13540 7877 1 109.50000 418.400000
7875 13540 7876 1 109.50000 418.400000
7875 13540 7877 1 109.50000 418.400000
7876 13540 7877 1 109.50000 418.400000
6121 13541 7878 1 109.50000 418.400000
6121 13541 7879 1 109.50000 418.400000
6121 13541 7880 1 109.50000 418.400000
7878 13541 7879 1 109.50000 418.400000
7878 13541 7880 1 109.50000 418.400000
7879 13541 7880 1 109.50000 418.400000
3938 13542 5903 1 109.50000 418.400000
3938 13542 7881 1 109.50000 418.400000
3938 13542 7882 1 109.50000 418.400000
5903 13542 7881 1 109.50000 418.400000
5903 13542 7882 1 109.50000 418.400000
7881 13542 7882 1 109.50000 418.400000
5210 13543 7883 1 109.50000 418.400000
5210 13543 7884 1 109.50000 418.400000
5210 13543 7885 1 109.50000 418.400000
7883 13543 7884 1 109.50000 418.400000
7883 13543 7885 1 109.50000 418.400000
7884 13543 7885 1 109.50000 418.400000
1765 13544 7886 1 109.50000 418.400000
1765 13544 7887 1 109.50000 418.400000
1765 13544 7888 1 109.50000 418.400000
7886 13544 7887 1 109.50000 418.400000
7886 13544 7888 1 109.50000 418.400000
7887 13544 7888 1 109.50000 418.400000
6003 13545 7889 1 109.50000 418.400000
6003 13545 7890 1 109.50000 418.400000
6003 13545 7891 1 109.50000 418.400000
7889 13545 7890 1 109.50000 418.400000
7889 13545 7891 1 109.50000 418.400000
7890 13545 7891 1 109.50000 418.400000
5335 13546 7892 1 109.50000 418.400000
5335 13546 7893 1 109.50000 418.400000
5335 13546 7894 1 109.50000 418.400000
7892 13546 7893 1 109.50000 418.400000
7892 13546 7894 1 109.50000 418.400000
7893 13546 7894 1 109.50000 418.400000
6750 13547 7895 1 109.50000 418.400000
6750 13547 7896 1 109.50000 418.400000
6750 13547 7897 1 109.50000 418.400000
7895 13547 7896 1 109.50000 418.400000
7895 13547 7897 1 109.50000 418.400000
7896 13547 7897 1 109.50000 418.400000
1185 13548 7898 1 109.50000 418.400000
1185 13548 7899 1 109.50000 418.400000
1185 13548 7900 1 109.50000 418.400000
7898 13548 7899 1 109.50000 418.400000
7898 13548 7900 1 109.50000 418.400000
7899 13548 7900 1 109.50000 418.400000
82 13549 2642 1 109.50000 418.400000
82 13549 5387 1 109.50000 418.400000
82 13549 7901 1 109.50000 418.400000
2642 13549 5387 1 109.50000 418.400000
2642 13549 7901 1 109.50000 418.400000
5387 13549 7901 1 109.50000 418.400000
16 13550 3166 1 109.50000 418.400000
16 13550 7902 1 109.50000 418.400000
16 13550 7903 1 109.50000 418.400000
3166 13550 7902 1 109.50000 418.400000
3166 13550 7903 1 109.50000 418.400000
7902 13550 7903 1 109.50000 418.400000
1604 13551 4907 1 109.50000 418.400000
1604 13551 7904 1 109.50000 418.400000
1604 13551 7905 1 109.50000 418.400000
4907 13551 7904 1 109.50000 418.400000
4907 13551 7905 1 109.50000 418.400000
7904 13551 7905 1 109.50000 418.400000
2332 13552 2906 1 109.50000 418.400000
2332 13552 7662 1 109.50000 418.400000
2332 13552 7844 1 109.50000 418.400000
2906 13552 7662 1 109.50000 418.400000
2906 13552 7844 1 109.50000 418.400000
7662 13552 7844 1 109.50000 418.400000
1457 13553 6788 1 109.50000 418.400000
1457 13553 7906 1 109.50000 418.400000
1457 13553 7907 1 109.50000 418.400000
6788 13553 7906 1 109.50000 418.400000
6788 13553 7907 1 109.50000 418.400000
7906 13553 7907 1 109.50000 418.400000
2299 13554 7136 1 109.50000 418.400000
2299 13554 7909 1 109.50000 418.400000
2299 13554 7910 1 109.50000 418.400000
7136 13554 7909 1 109.50000 418.400000
7136 13554 7910 1 109.50000 418.400000
7909 13554 7910 1 109.50000 418.400000
3260 13555 3510 1 109.50000 418.400000
3260 13555 7911 1 109.50000 418.400000
3260 13555 7912 1 109.50000 418.400000
3510 13555 7911 1 109.50000 418.400000
3510 13555 7912 1 109.50000 418.400000
7911 13555 7912 1 109.50000 418.400000
7855 13556 7913 1 109.50000 418.400000
7855 13556 7914 1 109.50000 418.400000
7855 13556 7915 1 109.50000 418.400000
7913 13556 7914 1 109.50000 418.400000
7913 13556 7915 1 109.50000 418.400000
7914 13556 7915 1 109.50000 418.400000
3098 13557 5528 1 109.50000 418.400000
3098 13557 7916 1 109.50000 418.400000
3098 13557 7917 1 109.50000 418.400000
5528 13557 7916 1 109.50000 418.400000
5528 13557 7917 1 109.50000 418.400000
7916 13557 7917 1 109.50000 418.400000
7426 13558 7918 1 109.50000 418.400000
7426 13558 7919 1 109.50000 418.400000
7426 13558 7920 1 109.50000 418.400000
7918 13558 7919 1 109.50000 418.400000
7918 13558 7920 1 109.50000 418.400000
7919 13558 7920 1 109.50000 418.400000
4280 13559 7547 1 109.50000 418.400000
4280 13559 7921 1 109.50000 418.400000
4280 13559 7922 1 109.50000 418.400000
7547 13559 7921 1 109.50000 418.400000
7547 13559 7922 1 109.50000 418.400000
7921 13559 7922 1 109.50000 418.400000
257 13560 7923 1 109.50000 418.400000
257 13560 7924 1 109.50000 418.400000
257 13560 7925 1 109.50000 418.400000
7923 13560 7924 1 109.50000 418.400000
7923 13560 7925 1 109.50000 418.400000
7924 13560 7925 1 109.50000 418.400000
1363 13561 2281 1 109.50000 418.400000
1363 13561 4705 1 109.50000 418.400000
1363 13561 7926 1 109.50000 418.400000
2281 13561 4705 1 109.50000 418.400000
2281 13561 7926 1 109.50000 418.400000
4705 13561 7926 1 109.50000 418.400000
2158 13562 4629 1 109.50000 418.400000
2158 13562 7927 1 109.50000 418.400000
2158 13562 7928 1 109.50000 418.400000
4629 13562 7927 1 109.50000 418.400000
4629 13562 7928 1 109.50000 418.400000
7927 13562 7928 1 109.50000 418.400000
625 13563 7929 1 109.50000 418.400000
625 13563 7930 1 109.50000 418.400000
625 13563 7931 1 109.50000 418.400000
7929 13563 7930 1 109.50000 418.400000
7929 13563 7931 1 109.50000 418.400000
7930 13563 7931 1 109.50000 418.400000
3298 13564 7934 1 109.50000 418.400000
3298 13564 7935 1 109.50000 418.400000
3298 13564 7936 1 109.50000 418.400000
7934 13564 7935 1 109.50000 418.400000
7934 13564 7936 1 109.50000 418.400000
7935 13564 7936 1 109.50000 418.400000
7894 13565 7937 1 109.50000 418.400000
7894 13565 7938 1 109.50000 418.400000
7894 13565 7939 1 109.50000 418.400000
7937 13565 7938 1 109.50000 418.400000
7937 13565 7939 1 109.50000 418.400000
7938 13565 7939 1 109.50000 418.400000
1194 13566 5094 1 109.50000 418.400000
1194 13566 7940 1 109.50000 418.400000
1194 13566 7941 1 109.50000 418.400000
5094 13566 7940 1 109.50000 418.400000
5094 13566 7941 1 109.50000 418.400000
7940 13566 7941 1 109.50000 418.400000
4634 13567 7516 1 109.50000 418.400000
4634 13567 7777 1 109.50000 418.400000
4634 13567 7942 1 109.50000 418.400000
7516 13567 7777 1 109.50000 418.400000
7516 13567 7942 1 109.50000 418.400000
7777 13567 7942 1 109.50000 418.400000
3511 13568 7239 1 109.50000 418.400000
3511 13568 7943 1 109.50000 418.400000
3511 13568 7944 1 109.50000 418.400000
7239 13568 7943 1 109.50000 418.400000
7239 13568 7944 1 109.50000 418.400000
7943 13568 7944 1 109.50000 418.400000
4708 13569 7946 1 109.50000 418.400000
4708 13569 7947 1 109.50000 418.400000
4708 13569 7948 1 109.50000 418.400000
7946 13569 7947 1 109.50000 418.400000
7946 13569 7948 1 109.50000 418.400000
7947 13569 7948 1 109.50000 418.400000
630 13570 2815 1 109.50000 418.400000
630 13570 2817 1 109.50000 418.400000
630 13570 7949 1 109.50000 418.400000
2815 13570 2817 1 109.50000 418.400000
2815 13570 7949 1 109.50000 418.400000
2817 13570 7949 1 109.50000 418.400000
5820 13571 6461 1 109.50000 418.400000
5820 13571 6611 1 109.50000 418.400000
5820 13571 7950 1 109.50000 418.400000
6461 13571 6611 1 109.50000 418.400000
6461 13571 7950 1 109.50000 418.400000
6611 13571 7950 1 109.50000 418.400000
6402 13572 7951 1 109.50000 418.400000
6402 13572 7952 1 109.50000 418.400000
6402 13572 7953 1 109.50000 418.400000
7951 13572 7952 1 109.50000 418.400000
7951 13572 7953 1 109.50000 418.400000
7952 13572 7953 1 109.50000 418.400000
3351 13573 5490 1 109.50000 418.400000
3351 13573 5593 1 109.50000 418.400000
3351 13573 7954 1 109.50000 418.400000
5490 13573 5593 1 109.50000 418.400000
5490 13573 7954 1 109.50000 418.400000
5593 13573 7954 1 109.50000 418.400000
2117 13574 2118 1 109.50000 418.400000
2117 13574 5311 1 109.50000 418.400000
2117 13574 7955 1 109.50000 418.400000
2118 13574 5311 1 109.50000 418.400000
2118 13574 7955 1 109.50000 418.400000
5311 13574 7955 1 109.50000 418.400000
181 13575 6515 1 109.50000 418.400000
181 13575 7956 1 109.50000 418.400000
181 13575 11210 1 109.50000 418.400000
6515 13575 7956 1 109.50000 418.400000
6515 13575 11210 1 109.50000 418.400000
7956 13575 11210 1 109.50000 418.400000
5140 13576 7957 1 109.50000 418.400000
5140 13576 7958 1 109.50000 418.400000
5140 13576 7959 1 109.50000 418.400000
7957 13576 7958 1 109.50000 418.400000
7957 13576 7959 1 109.50000 418.400000
7958 13576 7959 1 109.50000 418.400000
2205 13577 4171 1 109.50000 418.400000
2205 13577 7960 1 109.50000 418.400000
2205 13577 7961 1 109.50000 418.400000
4171 13577 7960 1 109.50000 418.400000
4171 13577 7961 1 109.50000 418.400000
7960 13577 7961 1 109.50000 418.400000
71 13578 777 1 109.50000 418.400000
71 13578 778 1 109.50000 418.400000
71 13578 7962 1 109.50000 418.400000
777 13578 778 1 109.50000 418.400000
777 13578 7962 1 109.50000 418.400000
778 13578 7962 1 109.50000 418.400000
7963 13579 7964 1 109.50000 418.400000
7963 13579 7965 1 109.50000 418.400000
7963 13579 7966 1 109.50000 418.400000
7964 13579 7965 1 109.50000 418.400000
7964 13579 7966 1 109.50000 418.400000
7965 13579 7966 1 109.50000 418.400000
5369 13580 6800 1 109.50000 418.400000
5369 13580 7967 1 109.50000 418.400000
5369 13580 7968 1 109.50000 418.400000
6800 13580 7967 1 109.50000 418.400000
6800 13580 7968 1 109.50000 418.400000
7967 13580 7968 1 109.50000 418.400000
2713 13581 4084 1 109.50000 418.400000
2713 13581 4135 1 109.50000 418.400000
2713 13581 5120 1 109.50000 418.400000
4084 13581 4135 1 109.50000 418.400000
4084 13581 5120 1 109.50000 418.400000
4135 13581 5120 1 109.50000 418.400000
3165 13582 7969 1 109.50000 418.400000
3165 13582 7970 1 109.50000 418.400000
3165 13582 7971 1 109.50000 418.400000
7969 13582 7970 1 109.50000 418.400000
7969 13582 7971 1 109.50000 418.400000
7970 13582 7971 1 109.50000 418.400000
1673 13583 4295 1 109.50000 418.400000
1673 13583 7974 1 109.50000 418.400000
1673 13583 9837 1 109.50000 418.400000
4295 13583 7974 1 109.50000 418.400000
4295 13583 9837 1 109.50000 418.400000
7974 13583 9837 1 109.50000 418.400000
5023 13584 7208 1 109.50000 418.400000
5023 13584 7975 1 109.50000 418.400000
5023 13584 7976 1 109.50000 418.400000
7208 13584 7975 1 109.50000 418.400000
7208 13584 7976 1 109.50000 418.400000
7975 13584 7976 1 109.50000 418.400000
3202 13585 3666 1 109.50000 418.400000
3202 13585 7870 1 109.50000 418.400000
3202 13585 7977 1 109.50000 418.400000
3666 13585 7870 1 109.50000 418.400000
3666 13585 7977 1 109.50000 418.400000
7870 13585 7977 1 109.50000 418.400000
3595 13586 7978 1 109.50000 418.400000
3595 13586 7979 1 109.50000 418.400000
3595 13586 7980 1 109.50000 418.400000
7978 13586 7979 1 109.50000 418.400000
7978 13586 7980 1 109.50000 418.400000
7979 13586 7980 1 109.50000 418.400000
780 13587 1209 1 109.50000 418.400000
780 13587 6123 1 109.50000 418.400000
780 13587 7981 1 109.50000 418.400000
1209 13587 6123 1 109.50000 418.400000
1209 13587 7981 1 109.50000 418.400000
6123 13587 7981 1 109.50000 418.400000
297 13588 3682 1 109.50000 418.400000
297 13588 7982 1 109.50000 418.400000
297 13588 7983 1 109.50000 418.400000
3682 13588 7982 1 109.50000 418.400000
3682 13588 7983 1 109.50000 418.400000
7982 13588 7983 1 109.50000 418.400000
225 13589 7048 1 109.50000 418.400000
225 13589 7984 1 109.50000 418.400000
225 13589 7985 1 109.50000 418.400000
7048 13589 7984 1 109.50000 418.400000
7048 13589 7985 1 109.50000 418.400000
7984 13589 7985 1 109.50000 418.400000
6905 13590 7986 1 109.50000 418.400000
6905 13590 7987 1 109.50000 418.400000
6905 13590 7988 1 109.50000 418.400000
7986 13590 7987 1 109.50000 418.400000
7986 13590 7988 1 109.50000 418.400000
7987 13590 7988 1 109.50000 418.400000
1529 13591 7989 1 109.50000 418.400000
1529 13591 7990 1 109.50000 418.400000
1529 13591 7991 1 109.50000 418.400000
7989 13591 7990 1 109.50000 418.400000
7989 13591 7991 1 109.50000 418.400000
7990 13591 7991 1 109.50000 418.400000
27 13592 2877 1 109.50000 418.400000
27 13592 7992 1 109.50000 418.400000
27 13592 7993 1 109.50000 418.400000
2877 13592 7992 1 109.50000 418.400000
2877 13592 7993 1 109.50000 418.400000
7992 13592 7993 1 109.50000 418.400000
3655 13593 3657 1 109.50000 418.400000
3655 13593 5882 1 109.50000 418.400000
3655 13593 7994 1 109.50000 418.400000
3657 13593 5882 1 109.50000 418.400000
3657 13593 7994 1 109.50000 418.400000
5882 13593 7994 1 109.50000 418.400000
3252 13594 7995 1 109.50000 418.400000
3252 13594 7996 1 109.50000 418.400000
3252 13594 7997 1 109.50000 418.400000
7995 13594 7996 1 109.50000 418.400000
7995 13594 7997 1 109.50000 418.400000
7996 13594 7997 1 109.50000 418.400000
148 13595 7998 1 109.50000 418.400000
148 13595 7999 1 109.50000 418.400000
148 13595 8000 1 109.50000 418.400000
7998 13595 7999 1 109.50000 418.400000
7998 13595 8000 1 109.50000 418.400000
7999 13595 8000 1 109.50000 418.400000
1491 13596 4271 1 109.50000 418.400000
1491 13596 6243 1 109.50000 418.400000
1491 13596 7182 1 109.50000 418.400000
4271 13596 6243 1 109.50000 418.400000
4271 13596 7182 1 109.50000 418.400000
6243 13596 7182 1 109.50000 418.400000
4720 13597 8001 1 109.50000 418.400000
4720 13597 8002 1 109.50000 418.400000
4720 13597 8003 1 109.50000 418.400000
8001 13597 8002 1 109.50000 418.400000
8001 13597 8003 1 109.50000 418.400000
8002 13597 8003 1 109.50000 418.400000
8004 13598 8005 1 109.50000 418.400000
8004 13598 8006 1 109.50000 418.400000
8004 13598 8007 1 109.50000 418.400000
8005 13598 8006 1 109.50000 418.400000
8005 13598 8007 1 109.50000 418.400000
8006 13598 8007 1 109.50000 418.400000
1229 13599 7815 1 109.50000 418.400000
1229 13599 8008 1 109.50000 418.400000
1229 13599 8009 1 109.50000 418.400000
7815 13599 8008 1 109.50000 418.400000
7815 13599 8009 1 109.50000 418.400000
8008 13599 8009 1 109.50000 418.400000
3501 13600 5360 1 109.50000 418.400000
3501 13600 8010 1 109.50000 418.400000
3501 13600 8011 1 109.50000 418.400000
5360 13600 8010 1 109.50000 418.400000
5360 13600 8011 1 109.50000 418.400000
8010 13600 8011 1 109.50000 418.400000
4884 13601 5484 1 109.50000 418.400000
4884 13601 7514 1 109.50000 418.400000
4884 13601 8014 1 109.50000 418.400000
5484 13601 7514 1 109.50000 418.400000
5484 13601 8014 1 109.50000 418.400000
7514 13601 8014 1 109.50000 418.400000
8015 13602 8016 1 109.50000 418.400000
8015 13602 8017 1 109.50000 418.400000
8015 13602 8018 1 109.50000 418.400000
8016 13602 8017 1 109.50000 418.400000
8016 13602 8018 1 109.50000 418.400000
8017 13602 8018 1 109.50000 418.400000
8019 13603 8020 1 109.50000 418.400000
8019 13603 8021 1 109.50000 418.400000
8019 13603 8022 1 109.50000 418.400000
8020 13603 8021 1 109.50000 418.400000
8020 13603 8022 1 109.50000 418.400000
8021 13603 8022 1 109.50000 418.400000
2140 13604 3903 1 109.50000 418.400000
2140 13604 8023 1 109.50000 418.400000
2140 13604 8024 1 109.50000 418.400000
3903 13604 8023 1 109.50000 418.400000
3903 13604 8024 1 109.50000 418.400000
8023 13604 8024 1 109.50000 418.400000
2982 13605 8025 1 109.50000 418.400000
2982 13605 8026 1 109.50000 418.400000
2982 13605 8027 1 109.50000 418.400000
8025 13605 8026 1 109.50000 418.400000
8025 13605 8027 1 109.50000 418.400000
8026 13605 8027 1 109.50000 418.400000
3004 13606 5313 1 109.50000 418.400000
3004 13606 6683 1 109.50000 418.400000
3004 13606 8028 1 109.50000 418.400000
5313 13606 6683 1 109.50000 418.400000
5313 13606 8028 1 109.50000 418.400000
6683 13606 8028 1 109.50000 418.400000
8029 13607 8030 1 109.50000 418.400000
8029 13607 8031 1 109.50000 418.400000
8029 13607 8032 1 109.50000 418.400000
8030 13607 8031 1 109.50000 418.400000
8030 13607 8032 1 109.50000 418.400000
8031 13607 8032 1 109.50000 418.400000
6469 13608 8033 1 109.50000 418.400000
6469 13608 8034 1 109.50000 418.400000
6469 13608 8035 1 109.50000 418.400000
8033 13608 8034 1 109.50000 418.400000
8033 13608 8035 1 109.50000 418.400000
8034 13608 8035 1 109.50000 418.400000
4136 13609 8036 1 109.50000 418.400000
4136 13609 8037 1 109.50000 418.400000
4136 13609 8939 1 109.50000 418.400000
8036 13609 8037 1 109.50000 418.400000
8036 13609 8939 1 109.50000 418.400000
8037 13609 8939 1 109.50000 418.400000
4126 13610 6387 1 109.50000 418.400000
4126 13610 8038 1 109.50000 418.400000
4126 13610 8039 1 109.50000 418.400000
6387 13610 8038 1 109.50000 418.400000
6387 13610 8039 1 109.50000 418.400000
8038 13610 8039 1 109.50000 418.400000
5692 13611 7563 1 109.50000 418.400000
5692 13611 8040 1 109.50000 418.400000
5692 13611 8041 1 109.50000 418.400000
7563 13611 8040 1 109.50000 418.400000
7563 13611 8041 1 109.50000 418.400000
8040 13611 8041 1 109.50000 418.400000
2191 13612 2612 1 109.50000 418.400000
2191 13612 7422 1 109.50000 418.400000
2191 13612 8042 1 109.50000 418.400000
2612 13612 7422 1 109.50000 418.400000
2612 13612 8042 1 109.50000 418.400000
7422 13612 8042 1 109.50000 418.400000
2855 13613 4664 1 109.50000 418.400000
2855 13613 5930 1 109.50000 418.400000
2855 13613 8046 1 109.50000 418.400000
4664 13613 5930 1 109.50000 418.400000
4664 13613 8046 1 109.50000 418.400000
5930 13613 8046 1 109.50000 418.400000
5402 13614 6037 1 109.50000 418.400000
5402 13614 8047 1 109.50000 418.400000
5402 13614 8048 1 109.50000 418.400000
6037 13614 8047 1 109.50000 418.400000
6037 13614 8048 1 109.50000 418.400000
8047 13614 8048 1 109.50000 418.400000
926 13615 2449 1 109.50000 418.400000
926 13615 8049 1 109.50000 418.400000
926 13615 8050 1 109.50000 418.400000
2449 13615 8049 1 109.50000 418.400000
2449 13615 8050 1 109.50000 418.400000
8049 13615 8050 1 109.50000 418.400000
99 13616 7925 1 109.50000 418.400000
99 13616 8051 1 109.50000 418.400000
99 13616 8052 1 109.50000 418.400000
7925 13616 8051 1 109.50000 418.400000
7925 13616 8052 1 109.50000 418.400000
8051 13616 8052 1 109.50000 418.400000
32 13617 3401 1 109.50000 418.400000
32 13617 4064 1 109.50000 418.400000
32 13617 6276 1 109.50000 418.400000
3401 13617 4064 1 109.50000 418.400000
3401 13617 6276 1 109.50000 418.400000
4064 13617 6276 1 109.50000 418.400000
368 13618 3179 1 109.50000 418.400000
368 13618 8053 1 109.50000 418.400000
368 13618 8054 1 109.50000 418.400000
3179 13618 8053 1 109.50000 418.400000
3179 13618 8054 1 109.50000 418.400000
8053 13618 8054 1 109.50000 418.400000
6456 13619 8055 1 109.50000 418.400000
6456 13619 8056 1 109.50000 418.400000
6456 13619 8057 1 109.50000 418.400000
8055 13619 8056 1 109.50000 418.400000
8055 13619 8057 1 109.50000 418.400000
8056 13619 8057 1 109.50000 418.400000
2581 13620 7001 1 109.50000 418.400000
2581 13620 8060 1 109.50000 418.400000
2581 13620 8061 1 109.50000 418.400000
7001 13620 8060 1 109.50000 418.400000
7001 13620 8061 1 109.50000 418.400000
8060 13620 8061 1 109.50000 418.400000
4056 13621 5880 1 109.50000 418.400000
4056 13621 7188 1 109.50000 418.400000
4056 13621 8062 1 109.50000 418.400000
5880 13621 7188 1 109.50000 418.400000
5880 13621 8062 1 109.50000 418.400000
7188 13621 8062 1 109.50000 418.400000
4090 13622 4793 1 109.50000 418.400000
4090 13622 6139 1 109.50000 418.400000
4090 13622 8063 1 109.50000 418.400000
4793 13622 6139 1 109.50000 418.400000
4793 13622 8063 1 109.50000 418.400000
6139 13622 8063 1 109.50000 418.400000
3157 13623 8064 1 109.50000 418.400000
3157 13623 8065 1 109.50000 418.400000
3157 13623 8066 1 109.50000 418.400000
8064 13623 8065 1 109.50000 418.400000
8064 13623 8066 1 109.50000 418.400000
8065 13623 8066 1 109.50000 418.400000
2465 13624 5267 1 109.50000 418.400000
2465 13624 8068 1 109.50000 418.400000
2465 13624 8069 1 109.50000 418.400000
5267 13624 8068 1 109.50000 418.400000
5267 13624 8069 1 109.50000 418.400000
8068 13624 8069 1 109.50000 418.400000
58 13625 7841 1 109.50000 418.400000
58 13625 8070 1 109.50000 418.400000
58 13625 8071 1 109.50000 418.400000
7841 13625 8070 1 109.50000 418.400000
7841 13625 8071 1 109.50000 418.400000
8070 13625 8071 1 109.50000 418.400000
2183 13626 3483 1 109.50000 418.400000
2183 13626 3703 1 109.50000 418.400000
2183 13626 8072 1 109.50000 418.400000
3483 13626 3703 1 109.50000 418.400000
3483 13626 8072 1 109.50000 418.400000
3703 13626 8072 1 109.50000 418.400000
1136 13627 1524 1 109.50000 418.400000
1136 13627 4898 1 109.50000 418.400000
1136 13627 8073 1 109.50000 418.400000
1524 13627 4898 1 109.50000 418.400000
1524 13627 8073 1 109.50000 418.400000
4898 13627 8073 1 109.50000 418.400000
1600 13628 5149 1 109.50000 418.400000
1600 13628 7931 1 109.50000 418.400000
1600 13628 8074 1 109.50000 418.400000
5149 13628 7931 1 109.50000 418.400000
5149 13628 8074 1 109.50000 418.400000
7931 13628 8074 1 109.50000 418.400000
2815 13629 8075 1 109.50000 418.400000
2815 13629 8076 1 109.50000 418.400000
2815 13629 8077 1 109.50000 418.400000
8075 13629 8076 1 109.50000 418.400000
8075 13629 8077 1 109.50000 418.400000
8076 13629 8077 1 109.50000 418.400000
1078 13630 8078 1 109.50000 418.400000
1078 13630 8079 1 109.50000 418.400000
1078 13630 8080 1 109.50000 418.400000
8078 13630 8079 1 109.50000 418.400000
8078 13630 8080 1 109.50000 418.400000
8079 13630 8080 1 109.50000 418.400000
6702 13631 7254 1 109.50000 418.400000
6702 13631 8082 1 109.50000 418.400000
6702 13631 8083 1 109.50000 418.400000
7254 13631 8082 1 109.50000 418.400000
7254 13631 8083 1 109.50000 418.400000
8082 13631 8083 1 109.50000 418.400000
2091 13632 7885 1 109.50000 418.400000
2091 13632 8085 1 109.50000 418.400000
2091 13632 8086 1 109.50000 418.400000
7885 13632 8085 1 109.50000 418.400000
7885 13632 8086 1 109.50000 418.400000
8085 13632 8086 1 109.50000 418.400000
3064 13633 7452 1 109.50000 418.400000
3064 13633 8087 1 109.50000 418.400000
3064 13633 8088 1 109.50000 418.400000
7452 13633 8087 1 109.50000 418.400000
7452 13633 8088 1 109.50000 418.400000
8087 13633 8088 1 109.50000 418.400000
7597 13634 8094 1 109.50000 418.400000
7597 13634 8095 1 109.50000 418.400000
7597 13634 10370 1 109.50000 418.400000
8094 13634 8095 1 109.50000 418.400000
8094 13634 10370 1 109.50000 418.400000
8095 13634 10370 1 109.50000 418.400000
1783 13635 4250 1 109.50000 418.400000
1783 13635 8096 1 109.50000 418.400000
1783 13635 8097 1 109.50000 418.400000
4250 13635 8096 1 109.50000 418.400000
4250 13635 8097 1 109.50000 418.400000
8096 13635 8097 1 109.50000 418.400000
2235 13636 8098 1 109.50000 418.400000
2235 13636 8100 1 109.50000 418.400000
2235 13636 8101 1 109.50000 418.400000
8098 13636 8100 1 109.50000 418.400000
8098 13636 8101 1 109.50000 418.400000
8100 13636 8101 1 109.50000 418.400000
2665 13637 8102 1 109.50000 418.400000
2665 13637 8103 1 109.50000 418.400000
2665 13637 8104 1 109.50000 418.400000
8102 13637 8103 1 109.50000 418.400000
8102 13637 8104 1 109.50000 418.400000
8103 13637 8104 1 109.50000 418.400000
2303 13638 5330 1 109.50000 418.400000
2303 13638 7419 1 109.50000 418.400000
2303 13638 7549 1 109.50000 418.400000
5330 13638 7419 1 109.50000 418.400000
5330 13638 7549 1 109.50000 418.400000
7419 13638 7549 1 109.50000 418.400000
4236 13639 8106 1 109.50000 418.400000
4236 13639 9180 1 109.50000 418.400000
4236 13639 11212 1 109.50000 418.400000
8106 13639 9180 1 109.50000 418.400000
8106 13639 11212 1 109.50000 418.400000
9180 13639 11212 1 109.50000 418.400000
4599 13640 4841 1 109.50000 418.400000
4599 13640 6446 1 109.50000 418.400000
4599 13640 7533 1 109.50000 418.400000
4841 13640 6446 1 109.50000 418.400000
4841 13640 7533 1 109.50000 418.400000
6446 13640 7533 1 109.50000 418.400000
1961 13641 3531 1 109.50000 418.400000
1961 13641 5847 1 109.50000 418.400000
1961 13641 8107 1 109.50000 418.400000
3531 13641 5847 1 109.50000 418.400000
3531 13641 8107 1 109.50000 418.400000
5847 13641 8107 1 109.50000 418.400000
2072 13642 8108 1 109.50000 418.400000
2072 13642 8109 1 109.50000 418.400000
2072 13642 8110 1 109.50000 418.400000
8108 13642 8109 1 109.50000 418.400000
8108 13642 8110 1 109.50000 418.400000
8109 13642 8110 1 109.50000 418.400000
4760 13643 6591 1 109.50000 418.400000
4760 13643 8111 1 109.50000 418.400000
4760 13643 8112 1 109.50000 418.400000
6591 13643 8111 1 109.50000 418.400000
6591 13643 8112 1 109.50000 418.400000
8111 13643 8112 1 109.50000 418.400000
1692 13644 3240 1 109.50000 418.400000
1692 13644 8113 1 109.50000 418.400000
1692 13644 8114 1 109.50000 418.400000
3240 13644 8113 1 109.50000 418.400000
3240 13644 8114 1 109.50000 418.400000
8113 13644 8114 1 109.50000 418.400000
1618 13645 5664 1 109.50000 418.400000
1618 13645 6890 1 109.50000 418.400000
1618 13645 8116 1 109.50000 418.400000
5664 13645 6890 1 109.50000 418.400000
5664 13645 8116 1 109.50000 418.400000
6890 13645 8116 1 109.50000 418.400000
4559 13646 6166 1 109.50000 418.400000
4559 13646 8117 1 109.50000 418.400000
4559 13646 8118 1 109.50000 418.400000
6166 13646 8117 1 109.50000 418.400000
6166 13646 8118 1 109.50000 418.400000
8117 13646 8118 1 109.50000 418.400000
816 13647 8119 1 109.50000 418.400000
816 13647 8120 1 109.50000 418.400000
816 13647 8121 1 109.50000 418.400000
8119 13647 8120 1 109.50000 418.400000
8119 13647 8121 1 109.50000 418.400000
8120 13647 8121 1 109.50000 418.400000
3008 13648 3010 1 109.50000 418.400000
3008 13648 4640 1 109.50000 418.400000
3008 13648 8122 1 109.50000 418.400000
3010 13648 4640 1 109.50000 418.400000
3010 13648 8122 1 109.50000 418.400000
4640 13648 8122 1 109.50000 418.400000
5657 13649 7252 1 109.50000 418.400000
5657 13649 8123 1 109.50000 418.400000
5657 13649 8124 1 109.50000 418.400000
7252 13649 8123 1 109.50000 418.400000
7252 13649 8124 1 109.50000 418.400000
8123 13649 8124 1 109.50000 418.400000
475 13650 3947 1 109.50000 418.400000
475 13650 8125 1 109.50000 418.400000
475 13650 8126 1 109.50000 418.400000
3947 13650 8125 1 109.50000 418.400000
3947 13650 8126 1 109.50000 418.400000
8125 13650 8126 1 109.50000 418.400000
7389 13651 8127 1 109.50000 418.400000
7389 13651 8128 1 109.50000 418.400000
7389 13651 8129 1 109.50000 418.400000
8127 13651 8128 1 109.50000 418.400000
8127 13651 8129 1 109.50000 418.400000
8128 13651 8129 1 109.50000 418.400000
6808 13652 8114 1 109.50000 418.400000
6808 13652 8130 1 109.50000 418.400000
6808 13652 8131 1 109.50000 418.400000
8114 13652 8130 1 109.50000 418.400000
8114 13652 8131 1 109.50000 418.400000
8130 13652 8131 1 109.50000 418.400000
1246 13653 3235 1 109.50000 418.400000
1246 13653 8132 1 109.50000 418.400000
1246 13653 8133 1 109.50000 418.400000
3235 13653 8132 1 109.50000 418.400000
3235 13653 8133 1 109.50000 418.400000
8132 13653 8133 1 109.50000 418.400000
2484 13654 7859 1 109.50000 418.400000
2484 13654 8134 1 109.50000 418.400000
2484 13654 8135 1 109.50000 418.400000
7859 13654 8134 1 109.50000 418.400000
7859 13654 8135 1 109.50000 418.400000
8134 13654 8135 1 109.50000 418.400000
5950 13655 8136 1 109.50000 418.400000
5950 13655 8137 1 109.50000 418.400000
5950 13655 8138 1 109.50000 418.400000
8136 13655 8137 1 109.50000 418.400000
8136 13655 8138 1 109.50000 418.400000
8137 13655 8138 1 109.50000 418.400000
6599 13656 8139 1 109.50000 418.400000
6599 13656 8140 1 109.50000 418.400000
6599 13656 8141 1 109.50000 418.400000
8139 13656 8140 1 109.50000 418.400000
8139 13656 8141 1 109.50000 418.400000
8140 13656 8141 1 109.50000 418.400000
6056 13657 7529 1 109.50000 418.400000
6056 13657 8142 1 109.50000 418.400000
6056 13657 11201 1 109.50000 418.400000
7529 13657 8142 1 109.50000 418.400000
7529 13657 11201 1 109.50000 418.400000
8142 13657 11201 1 109.50000 418.400000
6922 13658 8143 1 109.50000 418.400000
6922 13658 8144 1 109.50000 418.400000
6922 13658 10063 1 109.50000 418.400000
8143 13658 8144 1 109.50000 418.400000
8143 13658 10063 1 109.50000 418.400000
8144 13658 10063 1 109.50000 418.400000
765 13659 5877 1 109.50000 418.400000
765 13659 6358 1 109.50000 418.400000
765 13659 8145 1 109.50000 418.400000
5877 13659 6358 1 109.50000 418.400000
5877 13659 8145 1 109.50000 418.400000
6358 13659 8145 1 109.50000 418.400000
2957 13660 3150 1 109.50000 418.400000
2957 13660 8146 1 109.50000 418.400000
2957 13660 8147 1 109.50000 418.400000
3150 13660 8146 1 109.50000 418.400000
3150 13660 8147 1 109.50000 418.400000
8146 13660 8147 1 109.50000 418.400000
467 13661 3028 1 109.50000 418.400000
467 13661 8149 1 109.50000 418.400000
467 13661 10793 1 109.50000 418.400000
3028 13661 8149 1 109.50000 418.400000
3028 13661 10793 1 109.50000 418.400000
8149 13661 10793 1 109.50000 418.400000
2848 13662 7213 1 109.50000 418.400000
2848 13662 8151 1 109.50000 418.400000
2848 13662 8152 1 109.50000 418.400000
7213 13662 8151 1 109.50000 418.400000
7213 13662 8152 1 109.50000 418.400000
8151 13662 8152 1 109.50000 418.400000
2441 13663 8154 1 109.50000 418.400000
2441 13663 8155 1 109.50000 418.400000
2441 13663 8157 1 109.50000 418.400000
8154 13663 8155 1 109.50000 418.400000
8154 13663 8157 1 109.50000 418.400000
8155 13663 8157 1 109.50000 418.400000
2691 13664 7559 1 109.50000 418.400000
2691 13664 8158 1 109.50000 418.400000
2691 13664 8159 1 109.50000 418.400000
7559 13664 8158 1 109.50000 418.400000
7559 13664 8159 1 109.50000 418.400000
8158 13664 8159 1 109.50000 418.400000
1463 13665 3263 1 109.50000 418.400000
1463 13665 8160 1 109.50000 418.400000
1463 13665 8162 1 109.50000 418.400000
3263 13665 8160 1 109.50000 418.400000
3263 13665 8162 1 109.50000 418.400000
8160 13665 8162 1 109.50000 418.400000
7321 13666 8052 1 109.50000 418.400000
7321 13666 8163 1 109.50000 418.400000
7321 13666 8164 1 109.50000 418.400000
8052 13666 8163 1 109.50000 418.400000
8052 13666 8164 1 109.50000 418.400000
8163 13666 8164 1 109.50000 418.400000
679 13667 1133 1 109.50000 418.400000
679 13667 1440 1 109.50000 418.400000
679 13667 8165 1 109.50000 418.400000
1133 13667 1440 1 109.50000 418.400000
1133 13667 8165 1 109.50000 418.400000
1440 13667 8165 1 109.50000 418.400000
3025 13668 5292 1 109.50000 418.400000
3025 13668 6318 1 109.50000 418.400000
3025 13668 8167 1 109.50000 418.400000
5292 13668 6318 1 109.50000 418.400000
5292 13668 8167 1 109.50000 418.400000
6318 13668 8167 1 109.50000 418.400000
1172 13669 5801 1 109.50000 418.400000
1172 13669 7307 1 109.50000 418.400000
1172 13669 8168 1 109.50000 418.400000
5801 13669 7307 1 109.50000 418.400000
5801 13669 8168 1 109.50000 418.400000
7307 13669 8168 1 109.50000 418.400000
327 13670 8169 1 109.50000 418.400000
327 13670 8170 1 109.50000 418.400000
327 13670 8171 1 109.50000 418.400000
8169 13670 8170 1 109.50000 418.400000
8169 13670 8171 1 109.50000 418.400000
8170 13670 8171 1 109.50000 418.400000
8172 13671 8173 1 109.50000 418.400000
8172 13671 8174 1 109.50000 418.400000
8172 13671 11188 1 109.50000 418.400000
8173 13671 8174 1 109.50000 418.400000
8173 13671 11188 1 109.50000 418.400000
8174 13671 11188 1 109.50000 418.400000
8175 13672 8176 1 109.50000 418.400000
8175 13672 8177 1 109.50000 418.400000
8175 13672 8178 1 109.50000 418.400000
8176 13672 8177 1 109.50000 418.400000
8176 13672 8178 1 109.50000 418.400000
8177 13672 8178 1 109.50000 418.400000
8179 13673 8180 1 109.50000 418.400000
8179 13673 8181 1 109.50000 418.400000
8179 13673 8182 1 109.50000 418.400000
8180 13673 8181 1 109.50000 418.400000
8180 13673 8182 1 109.50000 418.400000
8181 13673 8182 1 109.50000 418.400000
4743 13674 6159 1 109.50000 418.400000
4743 13674 8183 1 109.50000 418.400000
4743 13674 8184 1 109.50000 418.400000
6159 13674 8183 1 109.50000 418.400000
6159 13674 8184 1 109.50000 418.400000
8183 13674 8184 1 109.50000 418.400000
341 13675 3143 1 109.50000 418.400000
341 13675 3934 1 109.50000 418.400000
341 13675 8185 1 109.50000 418.400000
3143 13675 3934 1 109.50000 418.400000
3143 13675 8185 1 109.50000 418.400000
3934 13675 8185 1 109.50000 418.400000
7648 13676 8186 1 109.50000 418.400000
7648 13676 8187 1 109.50000 418.400000
7648 13676 8188 1 109.50000 418.400000
8186 13676 8187 1 109.50000 418.400000
8186 13676 8188 1 109.50000 418.400000
8187 13676 8188 1 109.50000 418.400000
2033 13677 8189 1 109.50000 418.400000
2033 13677 8190 1 109.50000 418.400000
2033 13677 8191 1 109.50000 418.400000
8189 13677 8190 1 109.50000 418.400000
8189 13677 8191 1 109.50000 418.400000
8190 13677 8191 1 109.50000 418.400000
2412 13678 8192 1 109.50000 418.400000
2412 13678 8193 1 109.50000 418.400000
2412 13678 8194 1 109.50000 418.400000
8192 13678 8193 1 109.50000 418.400000
8192 13678 8194 1 109.50000 418.400000
8193 13678 8194 1 109.50000 418.400000
7379 13679 8136 1 109.50000 418.400000
7379 13679 8195 1 109.50000 418.400000
7379 13679 8196 1 109.50000 418.400000
8136 13679 8195 1 109.50000 418.400000
8136 13679 8196 1 109.50000 418.400000
8195 13679 8196 1 109.50000 418.400000
5719 13680 6887 1 109.50000 418.400000
5719 13680 7028 1 109.50000 418.400000
5719 13680 8197 1 109.50000 418.400000
6887 13680 7028 1 109.50000 418.400000
6887 13680 8197 1 109.50000 418.400000
7028 13680 8197 1 109.50000 418.400000
6720 13681 8199 1 109.50000 418.400000
6720 13681 8200 1 109.50000 418.400000
6720 13681 8201 1 109.50000 418.400000
8199 13681 8200 1 109.50000 418.400000
8199 13681 8201 1 109.50000 418.400000
8200 13681 8201 1 109.50000 418.400000
2004 13682 5006 1 109.50000 418.400000
2004 13682 7500 1 109.50000 418.400000
2004 13682 8202 1 109.50000 418.400000
5006 13682 7500 1 109.50000 418.400000
5006 13682 8202 1 109.50000 418.400000
7500 13682 8202 1 109.50000 418.400000
4838 13683 7191 1 109.50000 418.400000
4838 13683 8203 1 109.50000 418.400000
4838 13683 8204 1 109.50000 418.400000
7191 13683 8203 1 109.50000 418.400000
7191 13683 8204 1 109.50000 418.400000
8203 13683 8204 1 109.50000 418.400000
3767 13684 8205 1 109.50000 418.400000
3767 13684 8206 1 109.50000 418.400000
3767 13684 8207 1 109.50000 418.400000
8205 13684 8206 1 109.50000 418.400000
8205 13684 8207 1 109.50000 418.400000
8206 13684 8207 1 109.50000 418.400000
4092 13685 6995 1 109.50000 418.400000
4092 13685 8208 1 109.50000 418.400000
4092 13685 8209 1 109.50000 418.400000
6995 13685 8208 1 109.50000 418.400000
6995 13685 8209 1 109.50000 418.400000
8208 13685 8209 1 109.50000 418.400000
2166 13686 4676 1 109.50000 418.400000
2166 13686 6497 1 109.50000 418.400000
2166 13686 8210 1 109.50000 418.400000
4676 13686 6497 1 109.50000 418.400000
4676 13686 8210 1 109.50000 418.400000
6497 13686 8210 1 109.50000 418.400000
1272 13687 3919 1 109.50000 418.400000
1272 13687 3920 1 109.50000 418.400000
1272 13687 5706 1 109.50000 418.400000
3919 13687 3920 1 109.50000 418.400000
3919 13687 5706 1 109.50000 418.400000
3920 13687 5706 1 109.50000 418.400000
4810 13688 4811 1 109.50000 418.400000
4810 13688 5151 1 109.50000 418.400000
4810 13688 8213 1 109.50000 418.400000
4811 13688 5151 1 109.50000 418.400000
4811 13688 8213 1 109.50000 418.400000
5151 13688 8213 1 109.50000 418.400000
6657 13689 7619 1 109.50000 418.400000
6657 13689 8214 1 109.50000 418.400000
6657 13689 8215 1 109.50000 418.400000
7619 13689 8214 1 109.50000 418.400000
7619 13689 8215 1 109.50000 418.400000
8214 13689 8215 1 109.50000 418.400000
4406 13690 6240 1 109.50000 418.400000
4406 13690 6882 1 109.50000 418.400000
4406 13690 8217 1 109.50000 418.400000
6240 13690 6882 1 109.50000 418.400000
6240 13690 8217 1 109.50000 418.400000
6882 13690 8217 1 109.50000 418.400000
2944 13691 5406 1 109.50000 418.400000
2944 13691 8218 1 109.50000 418.400000
2944 13691 8219 1 109.50000 418.400000
5406 13691 8218 1 109.50000 418.400000
5406 13691 8219 1 109.50000 418.400000
8218 13691 8219 1 109.50000 418.400000
282 13692 1533 1 109.50000 418.400000
282 13692 3821 1 109.50000 418.400000
282 13692 8220 1 109.50000 418.400000
1533 13692 3821 1 109.50000 418.400000
1533 13692 8220 1 109.50000 418.400000
3821 13692 8220 1 109.50000 418.400000
6093 13693 8223 1 109.50000 418.400000
6093 13693 8224 1 109.50000 418.400000
6093 13693 8225 1 109.50000 418.400000
8223 13693 8224 1 109.50000 418.400000
8223 13693 8225 1 109.50000 418.400000
8224 13693 8225 1 109.50000 418.400000
335 13694 8226 1 109.50000 418.400000
335 13694 8227 1 109.50000 418.400000
335 13694 8228 1 109.50000 418.400000
8226 13694 8227 1 109.50000 418.400000
8226 13694 8228 1 109.50000 418.400000
8227 13694 8228 1 109.50000 418.400000
2329 13695 4034 1 109.50000 418.400000
2329 13695 6481 1 109.50000 418.400000
2329 13695 7317 1 109.50000 418.400000
4034 13695 6481 1 109.50000 418.400000
4034 13695 7317 1 109.50000 418.400000
6481 13695 7317 1 109.50000 418.400000
8229 13696 8230 1 109.50000 418.400000
8229 13696 8231 1 109.50000 418.400000
8229 13696 8232 1 109.50000 418.400000
8230 13696 8231 1 109.50000 418.400000
8230 13696 8232 1 109.50000 418.400000
8231 13696 8232 1 109.50000 418.400000
558 13697 1991 1 109.50000 418.400000
558 13697 8233 1 109.50000 418.400000
558 13697 8234 1 109.50000 418.400000
1991 13697 8233 1 109.50000 418.400000
1991 13697 8234 1 109.50000 418.400000
8233 13697 8234 1 109.50000 418.400000
51 13698 2888 1 109.50000 418.400000
51 13698 8235 1 109.50000 418.400000
51 13698 8236 1 109.50000 418.400000
2888 13698 8235 1 109.50000 418.400000
2888 13698 8236 1 109.50000 418.400000
8235 13698 8236 1 109.50000 418.400000
6157 13699 6334 1 109.50000 418.400000
6157 13699 8238 1 109.50000 418.400000
6157 13699 8239 1 109.50000 418.400000
6334 13699 8238 1 109.50000 418.400000
6334 13699 8239 1 109.50000 418.400000
8238 13699 8239 1 109.50000 418.400000
5196 13700 8241 1 109.50000 418.400000
5196 13700 8242 1 109.50000 418.400000
5196 13700 8609 1 109.50000 418.400000
8241 13700 8242 1 109.50000 418.400000
8241 13700 8609 1 109.50000 418.400000
8242 13700 8609 1 109.50000 418.400000
5034 13701 8243 1 109.50000 418.400000
5034 13701 8244 1 109.50000 418.400000
5034 13701 8245 1 109.50000 418.400000
8243 13701 8244 1 109.50000 418.400000
8243 13701 8245 1 109.50000 418.400000
8244 13701 8245 1 109.50000 418.400000
5854 13702 7800 1 109.50000 418.400000
5854 13702 8247 1 109.50000 418.400000
5854 13702 11248 1 109.50000 418.400000
7800 13702 8247 1 109.50000 418.400000
7800 13702 11248 1 109.50000 418.400000
8247 13702 11248 1 109.50000 418.400000
3840 13703 7122 1 109.50000 418.400000
3840 13703 8199 1 109.50000 418.400000
3840 13703 8248 1 109.50000 418.400000
7122 13703 8199 1 109.50000 418.400000
7122 13703 8248 1 109.50000 418.400000
8199 13703 8248 1 109.50000 418.400000
8249 13704 8250 1 109.50000 418.400000
8249 13704 8251 1 109.50000 418.400000
8249 13704 8252 1 109.50000 418.400000
8250 13704 8251 1 109.50000 418.400000
8250 13704 8252 1 109.50000 418.400000
8251 13704 8252 1 109.50000 418.400000
5855 13705 8253 1 109.50000 418.400000
5855 13705 8254 1 109.50000 418.400000
5855 13705 8255 1 109.50000 418.400000
8253 13705 8254 1 109.50000 418.400000
8253 13705 8255 1 109.50000 418.400000
8254 13705 8255 1 109.50000 418.400000
4220 13706 8256 1 109.50000 418.400000
4220 13706 8257 1 109.50000 418.400000
4220 13706 8258 1 109.50000 418.400000
8256 13706 8257 1 109.50000 418.400000
8256 13706 8258 1 109.50000 418.400000
8257 13706 8258 1 109.50000 418.400000
3862 13707 6438 1 109.50000 418.400000
3862 13707 8260 1 109.50000 418.400000
3862 13707 8261 1 109.50000 418.400000
6438 13707 8260 1 109.50000 418.400000
6438 13707 8261 1 109.50000 418.400000
8260 13707 8261 1 109.50000 418.400000
1167 13708 3724 1 109.50000 418.400000
1167 13708 8263 1 109.50000 418.400000
1167 13708 8264 1 109.50000 418.400000
3724 13708 8263 1 109.50000 418.400000
3724 13708 8264 1 109.50000 418.400000
8263 13708 8264 1 109.50000 418.400000
5459 13709 8266 1 109.50000 418.400000
5459 13709 8267 1 109.50000 418.400000
5459 13709 8268 1 109.50000 418.400000
8266 13709 8267 1 109.50000 418.400000
8266 13709 8268 1 109.50000 418.400000
8267 13709 8268 1 109.50000 418.400000
102 13710 8269 1 109.50000 418.400000
102 13710 8270 1 109.50000 418.400000
102 13710 8271 1 109.50000 418.400000
8269 13710 8270 1 109.50000 418.400000
8269 13710 8271 1 109.50000 418.400000
8270 13710 8271 1 109.50000 418.400000
2819 13711 4755 1 109.50000 418.400000
2819 13711 8042 1 109.50000 418.400000
2819 13711 8272 1 109.50000 418.400000
4755 13711 8042 1 109.50000 418.400000
4755 13711 8272 1 109.50000 418.400000
8042 13711 8272 1 109.50000 418.400000
438 13712 1211 1 109.50000 418.400000
438 13712 5074 1 109.50000 418.400000
438 13712 8273 1 109.50000 418.400000
1211 13712 5074 1 109.50000 418.400000
1211 13712 8273 1 109.50000 418.400000
5074 13712 8273 1 109.50000 418.400000
1135 13713 2679 1 109.50000 418.400000
1135 13713 7370 1 109.50000 418.400000
1135 13713 8274 1 109.50000 418.400000
2679 13713 7370 1 109.50000 418.400000
2679 13713 8274 1 109.50000 418.400000
7370 13713 8274 1 109.50000 418.400000
2256 13714 5191 1 109.50000 418.400000
2256 13714 5726 1 109.50000 418.400000
2256 13714 8275 1 109.50000 418.400000
5191 13714 5726 1 109.50000 418.400000
5191 13714 8275 1 109.50000 418.400000
5726 13714 8275 1 109.50000 418.400000
4822 13715 6545 1 109.50000 418.400000
4822 13715 6546 1 109.50000 418.400000
4822 13715 8278 1 109.50000 418.400000
6545 13715 6546 1 109.50000 418.400000
6545 13715 8278 1 109.50000 418.400000
6546 13715 8278 1 109.50000 418.400000
694 13716 6361 1 109.50000 418.400000
694 13716 6363 1 109.50000 418.400000
694 13716 8280 1 109.50000 418.400000
6361 13716 6363 1 109.50000 418.400000
6361 13716 8280 1 109.50000 418.400000
6363 13716 8280 1 109.50000 418.400000
7722 13717 8281 1 109.50000 418.400000
7722 13717 8282 1 109.50000 418.400000
7722 13717 8998 1 109.50000 418.400000
8281 13717 8282 1 109.50000 418.400000
8281 13717 8998 1 109.50000 418.400000
8282 13717 8998 1 109.50000 418.400000
8284 13718 8285 1 109.50000 418.400000
8284 13718 8286 1 109.50000 418.400000
8284 13718 8287 1 109.50000 418.400000
8285 13718 8286 1 109.50000 418.400000
8285 13718 8287 1 109.50000 418.400000
8286 13718 8287 1 109.50000 418.400000
8290 13719 8291 1 109.50000 418.400000
8290 13719 9568 1 109.50000 418.400000
8290 13719 10944 1 109.50000 418.400000
8291 13719 9568 1 109.50000 418.400000
8291 13719 10944 1 109.50000 418.400000
9568 13719 10944 1 109.50000 418.400000
198 13720 6468 1 109.50000 418.400000
198 13720 8292 1 109.50000 418.400000
198 13720 8293 1 109.50000 418.400000
6468 13720 8292 1 109.50000 418.400000
6468 13720 8293 1 109.50000 418.400000
8292 13720 8293 1 109.50000 418.400000
6449 13721 6742 1 109.50000 418.400000
6449 13721 8295 1 109.50000 418.400000
6449 13721 8296 1 109.50000 418.400000
6742 13721 8295 1 109.50000 418.400000
6742 13721 8296 1 109.50000 418.400000
8295 13721 8296 1 109.50000 418.400000
2121 13722 3819 1 109.50000 418.400000
2121 13722 4294 1 109.50000 418.400000
2121 13722 8297 1 109.50000 418.400000
3819 13722 4294 1 109.50000 418.400000
3819 13722 8297 1 109.50000 418.400000
4294 13722 8297 1 109.50000 418.400000
1831 13723 8299 1 109.50000 418.400000
1831 13723 8300 1 109.50000 418.400000
1831 13723 8301 1 109.50000 418.400000
8299 13723 8300 1 109.50000 418.400000
8299 13723 8301 1 109.50000 418.400000
8300 13723 8301 1 109.50000 418.400000
4998 13724 8302 1 109.50000 418.400000
4998 13724 8303 1 109.50000 418.400000
4998 13724 8304 1 109.50000 418.400000
8302 13724 8303 1 109.50000 418.400000
8302 13724 8304 1 109.50000 418.400000
8303 13724 8304 1 109.50000 418.400000
3827 13725 4543 1 109.50000 418.400000
3827 13725 8305 1 109.50000 418.400000
3827 13725 8306 1 109.50000 418.400000
4543 13725 8305 1 109.50000 418.400000
4543 13725 8306 1 109.50000 418.400000
8305 13725 8306 1 109.50000 418.400000
2422 13726 4700 1 109.50000 418.400000
2422 13726 8307 1 109.50000 418.400000
2422 13726 8308 1 109.50000 418.400000
4700 13726 8307 1 109.50000 418.400000
4700 13726 8308 1 109.50000 418.400000
8307 13726 8308 1 109.50000 418.400000
1626 13727 8309 1 109.50000 418.400000
1626 13727 8310 1 109.50000 418.400000
1626 13727 8311 1 109.50000 418.400000
8309 13727 8310 1 109.50000 418.400000
8309 13727 8311 1 109.50000 418.400000
8310 13727 8311 1 109.50000 418.400000
5794 13728 5797 1 109.50000 418.400000
5794 13728 8312 1 109.50000 418.400000
5794 13728 8313 1 109.50000 418.400000
5797 13728 8312 1 109.50000 418.400000
5797 13728 8313 1 109.50000 418.400000
8312 13728 8313 1 109.50000 418.400000
8316 13729 8317 1 109.50000 418.400000
8316 13729 8318 1 109.50000 418.400000
8316 13729 8319 1 109.50000 418.400000
8317 13729 8318 1 109.50000 418.400000
8317 13729 8319 1 109.50000 418.400000
8318 13729 8319 1 109.50000 418.400000
922 13730 1193 1 109.50000 418.400000
922 13730 7809 1 109.50000 418.400000
922 13730 8320 1 109.50000 418.400000
1193 13730 7809 1 109.50000 418.400000
1193 13730 8320 1 109.50000 418.400000
7809 13730 8320 1 109.50000 418.400000
6217 13731 8029 1 109.50000 418.400000
6217 13731 8321 1 109.50000 418.400000
6217 13731 8322 1 109.50000 418.400000
8029 13731 8321 1 109.50000 418.400000
8029 13731 8322 1 109.50000 418.400000
8321 13731 8322 1 109.50000 418.400000
422 13732 5953 1 109.50000 418.400000
422 13732 8323 1 109.50000 418.400000
422 13732 8324 1 109.50000 418.400000
5953 13732 8323 1 109.50000 418.400000
5953 13732 8324 1 109.50000 418.400000
8323 13732 8324 1 109.50000 418.400000
3297 13733 8186 1 109.50000 418.400000
3297 13733 8325 1 109.50000 418.400000
3297 13733 8326 1 109.50000 418.400000
8186 13733 8325 1 109.50000 418.400000
8186 13733 8326 1 109.50000 418.400000
8325 13733 8326 1 109.50000 418.400000
8327 13734 8328 1 109.50000 418.400000
8327 13734 8329 1 109.50000 418.400000
8327 13734 8330 1 109.50000 418.400000
8328 13734 8329 1 109.50000 418.400000
8328 13734 8330 1 109.50000 418.400000
8329 13734 8330 1 109.50000 418.400000
3836 13735 8333 1 109.50000 418.400000
3836 13735 8334 1 109.50000 418.400000
3836 13735 8335 1 109.50000 418.400000
8333 13735 8334 1 109.50000 418.400000
8333 13735 8335 1 109.50000 418.400000
8334 13735 8335 1 109.50000 418.400000
8336 13736 8337 1 109.50000 418.400000
8336 13736 8338 1 109.50000 418.400000
8336 13736 8339 1 109.50000 418.400000
8337 13736 8338 1 109.50000 418.400000
8337 13736 8339 1 109.50000 418.400000
8338 13736 8339 1 109.50000 418.400000
2788 13737 3197 1 109.50000 418.400000
2788 13737 8340 1 109.50000 418.400000
2788 13737 8341 1 109.50000 418.400000
3197 13737 8340 1 109.50000 418.400000
3197 13737 8341 1 109.50000 418.400000
8340 13737 8341 1 109.50000 418.400000
5653 13738 5654 1 109.50000 418.400000
5653 13738 7451 1 109.50000 418.400000
5653 13738 8342 1 109.50000 418.400000
5654 13738 7451 1 109.50000 418.400000
5654 13738 8342 1 109.50000 418.400000
7451 13738 8342 1 109.50000 418.400000
2831 13739 8343 1 109.50000 418.400000
2831 13739 8344 1 109.50000 418.400000
2831 13739 8345 1 109.50000 418.400000
8343 13739 8344 1 109.50000 418.400000
8343 13739 8345 1 109.50000 418.400000
8344 13739 8345 1 109.50000 418.400000
6294 13740 6588 1 109.50000 418.400000
6294 13740 8346 1 109.50000 418.400000
6294 13740 8347 1 109.50000 418.400000
6588 13740 8346 1 109.50000 418.400000
6588 13740 8347 1 109.50000 418.400000
8346 13740 8347 1 109.50000 418.400000
539 13741 8348 1 109.50000 418.400000
539 13741 8349 1 109.50000 418.400000
539 13741 8350 1 109.50000 418.400000
8348 13741 8349 1 109.50000 418.400000
8348 13741 8350 1 109.50000 418.400000
8349 13741 8350 1 109.50000 418.400000
3427 13742 5046 1 109.50000 418.400000
3427 13742 6930 1 109.50000 418.400000
3427 13742 8104 1 109.50000 418.400000
5046 13742 6930 1 109.50000 418.400000
5046 13742 8104 1 109.50000 418.400000
6930 13742 8104 1 109.50000 418.400000
5827 13743 8351 1 109.50000 418.400000
5827 13743 8352 1 109.50000 418.400000
5827 13743 8353 1 109.50000 418.400000
8351 13743 8352 1 109.50000 418.400000
8351 13743 8353 1 109.50000 418.400000
8352 13743 8353 1 109.50000 418.400000
5998 13744 7217 1 109.50000 418.400000
5998 13744 8354 1 109.50000 418.400000
5998 13744 11240 1 109.50000 418.400000
7217 13744 8354 1 109.50000 418.400000
7217 13744 11240 1 109.50000 418.400000
8354 13744 11240 1 109.50000 418.400000
6490 13745 8355 1 109.50000 418.400000
6490 13745 8356 1 109.50000 418.400000
6490 13745 10119 1 109.50000 418.400000
8355 13745 8356 1 109.50000 418.400000
8355 13745 10119 1 109.50000 418.400000
8356 13745 10119 1 109.50000 418.400000
633 13746 6275 1 109.50000 418.400000
633 13746 8357 1 109.50000 418.400000
633 13746 8358 1 109.50000 418.400000
6275 13746 8357 1 109.50000 418.400000
6275 13746 8358 1 109.50000 418.400000
8357 13746 8358 1 109.50000 418.400000
6079 13747 8359 1 109.50000 418.400000
6079 13747 8360 1 109.50000 418.400000
6079 13747 8361 1 109.50000 418.400000
8359 13747 8360 1 109.50000 418.400000
8359 13747 8361 1 109.50000 418.400000
8360 13747 8361 1 109.50000 418.400000
6532 13748 7465 1 109.50000 418.400000
6532 13748 7948 1 109.50000 418.400000
6532 13748 8362 1 109.50000 418.400000
7465 13748 7948 1 109.50000 418.400000
7465 13748 8362 1 109.50000 418.400000
7948 13748 8362 1 109.50000 418.400000
5968 13749 8363 1 109.50000 418.400000
5968 13749 8364 1 109.50000 418.400000
5968 13749 8365 1 109.50000 418.400000
8363 13749 8364 1 109.50000 418.400000
8363 13749 8365 1 109.50000 418.400000
8364 13749 8365 1 109.50000 418.400000
3606 13750 3979 1 109.50000 418.400000
3606 13750 8366 1 109.50000 418.400000
3606 13750 8367 1 109.50000 418.400000
3979 13750 8366 1 109.50000 418.400000
3979 13750 8367 1 109.50000 418.400000
8366 13750 8367 1 109.50000 418.400000
4772 13751 6039 1 109.50000 418.400000
4772 13751 7687 1 109.50000 418.400000
4772 13751 8372 1 109.50000 418.400000
6039 13751 7687 1 109.50000 418.400000
6039 13751 8372 1 109.50000 418.400000
7687 13751 8372 1 109.50000 418.400000
1985 13752 5388 1 109.50000 418.400000
1985 13752 8374 1 109.50000 418.400000
1985 13752 8375 1 109.50000 418.400000
5388 13752 8374 1 109.50000 418.400000
5388 13752 8375 1 109.50000 418.400000
8374 13752 8375 1 109.50000 418.400000
359 13753 1686 1 109.50000 418.400000
359 13753 1687 1 109.50000 418.400000
359 13753 8377 1 109.50000 418.400000
1686 13753 1687 1 109.50000 418.400000
1686 13753 8377 1 109.50000 418.400000
1687 13753 8377 1 109.50000 418.400000
2521 13754 5750 1 109.50000 418.400000
2521 13754 5770 1 109.50000 418.400000
2521 13754 8378 1 109.50000 418.400000
5750 13754 5770 1 109.50000 418.400000
5750 13754 8378 1 109.50000 418.400000
5770 13754 8378 1 109.50000 418.400000
2797 13755 4346 1 109.50000 418.400000
2797 13755 8379 1 109.50000 418.400000
2797 13755 8380 1 109.50000 418.400000
4346 13755 8379 1 109.50000 418.400000
4346 13755 8380 1 109.50000 418.400000
8379 13755 8380 1 109.50000 418.400000
767 13756 1936 1 109.50000 418.400000
767 13756 8382 1 109.50000 418.400000
767 13756 8383 1 109.50000 418.400000
1936 13756 8382 1 109.50000 418.400000
1936 13756 8383 1 109.50000 418.400000
8382 13756 8383 1 109.50000 418.400000
256 13757 1827 1 109.50000 418.400000
256 13757 6834 1 109.50000 418.400000
256 13757 8384 1 109.50000 418.400000
1827 13757 6834 1 109.50000 418.400000
1827 13757 8384 1 109.50000 418.400000
6834 13757 8384 1 109.50000 418.400000
480 13758 5688 1 109.50000 418.400000
480 13758 8010 1 109.50000 418.400000
480 13758 8385 1 109.50000 418.400000
5688 13758 8010 1 109.50000 418.400000
5688 13758 8385 1 109.50000 418.400000
8010 13758 8385 1 109.50000 418.400000
3722 13759 8386 1 109.50000 418.400000
3722 13759 8387 1 109.50000 418.400000
3722 13759 8388 1 109.50000 418.400000
8386 13759 8387 1 109.50000 418.400000
8386 13759 8388 1 109.50000 418.400000
8387 13759 8388 1 109.50000 418.400000
1752 13760 5552 1 109.50000 418.400000
1752 13760 7255 1 109.50000 418.400000
1752 13760 8389 1 109.50000 418.400000
5552 13760 7255 1 109.50000 418.400000
5552 13760 8389 1 109.50000 418.400000
7255 13760 8389 1 109.50000 418.400000
6234 13761 8390 1 109.50000 418.400000
6234 13761 8391 1 109.50000 418.400000
6234 13761 10272 1 109.50000 418.400000
8390 13761 8391 1 109.50000 418.400000
8390 13761 10272 1 109.50000 418.400000
8391 13761 10272 1 109.50000 418.400000
3656 13762 5310 1 109.50000 418.400000
3656 13762 8392 1 109.50000 418.400000
3656 13762 8393 1 109.50000 418.400000
5310 13762 8392 1 109.50000 418.400000
5310 13762 8393 1 109.50000 418.400000
8392 13762 8393 1 109.50000 418.400000
4851 13763 8394 1 109.50000 418.400000
4851 13763 8395 1 109.50000 418.400000
4851 13763 8396 1 109.50000 418.400000
8394 13763 8395 1 109.50000 418.400000
8394 13763 8396 1 109.50000 418.400000
8395 13763 8396 1 109.50000 418.400000
1794 13764 6524 1 109.50000 418.400000
1794 13764 8397 1 109.50000 418.400000
1794 13764 8398 1 109.50000 418.400000
6524 13764 8397 1 109.50000 418.400000
6524 13764 8398 1 109.50000 418.400000
8397 13764 8398 1 109.50000 418.400000
53 13765 6471 1 109.50000 418.400000
53 13765 8399 1 109.50000 418.400000
53 13765 8400 1 109.50000 418.400000
6471 13765 8399 1 109.50000 418.400000
6471 13765 8400 1 109.50000 418.400000
8399 13765 8400 1 109.50000 418.400000
492 13766 5751 1 109.50000 418.400000
492 13766 8401 1 109.50000 418.400000
492 13766 8402 1 109.50000 418.400000
5751 13766 8401 1 109.50000 418.400000
5751 13766 8402 1 109.50000 418.400000
8401 13766 8402 1 109.50000 418.400000
229 13767 4242 1 109.50000 418.400000
229 13767 6526 1 109.50000 418.400000
229 13767 7153 1 109.50000 418.400000
4242 13767 6526 1 109.50000 418.400000
4242 13767 7153 1 109.50000 418.400000
6526 13767 7153 1 109.50000 418.400000
1556 13768 1892 1 109.50000 418.400000
1556 13768 1894 1 109.50000 418.400000
1556 13768 8403 1 109.50000 418.400000
1892 13768 1894 1 109.50000 418.400000
1892 13768 8403 1 109.50000 418.400000
1894 13768 8403 1 109.50000 418.400000
3335 13769 7913 1 109.50000 418.400000
3335 13769 8406 1 109.50000 418.400000
3335 13769 8407 1 109.50000 418.400000
7913 13769 8406 1 109.50000 418.400000
7913 13769 8407 1 109.50000 418.400000
8406 13769 8407 1 109.50000 418.400000
8408 13770 8409 1 109.50000 418.400000
8408 13770 8410 1 109.50000 418.400000
8408 13770 9452 1 109.50000 418.400000
8409 13770 8410 1 109.50000 418.400000
8409 13770 9452 1 109.50000 418.400000
8410 13770 9452 1 109.50000 418.400000
4315 13771 5789 1 109.50000 418.400000
4315 13771 8411 1 109.50000 418.400000
4315 13771 10028 1 109.50000 418.400000
5789 13771 8411 1 109.50000 418.400000
5789 13771 10028 1 109.50000 418.400000
8411 13771 10028 1 109.50000 418.400000
723 13772 724 1 109.50000 418.400000
723 13772 8413 1 109.50000 418.400000
723 13772 8414 1 109.50000 418.400000
724 13772 8413 1 109.50000 418.400000
724 13772 8414 1 109.50000 418.400000
8413 13772 8414 1 109.50000 418.400000
4512 13773 8415 1 109.50000 418.400000
4512 13773 8416 1 109.50000 418.400000
4512 13773 8417 1 109.50000 418.400000
8415 13773 8416 1 109.50000 418.400000
8415 13773 8417 1 109.50000 418.400000
8416 13773 8417 1 109.50000 418.400000
7428 13774 8418 1 109.50000 418.400000
7428 13774 8419 1 109.50000 418.400000
7428 13774 8420 1 109.50000 418.400000
8418 13774 8419 1 109.50000 418.400000
8418 13774 8420 1 109.50000 418.400000
8419 13774 8420 1 109.50000 418.400000
3384 13775 5223 1 109.50000 418.400000
3384 13775 5224 1 109.50000 418.400000
3384 13775 8422 1 109.50000 418.400000
5223 13775 5224 1 109.50000 418.400000
5223 13775 8422 1 109.50000 418.400000
5224 13775 8422 1 109.50000 418.400000
8367 13776 8423 1 109.50000 418.400000
8367 13776 8424 1 109.50000 418.400000
8367 13776 8425 1 109.50000 418.400000
8423 13776 8424 1 109.50000 418.400000
8423 13776 8425 1 109.50000 418.400000
8424 13776 8425 1 109.50000 418.400000
1018 13777 7611 1 109.50000 418.400000
1018 13777 7812 1 109.50000 418.400000
1018 13777 8427 1 109.50000 418.400000
7611 13777 7812 1 109.50000 418.400000
7611 13777 8427 1 109.50000 418.400000
7812 13777 8427 1 109.50000 418.400000
3883 13778 5131 1 109.50000 418.400000
3883 13778 8430 1 109.50000 418.400000
3883 13778 8431 1 109.50000 418.400000
5131 13778 8430 1 109.50000 418.400000
5131 13778 8431 1 109.50000 418.400000
8430 13778 8431 1 109.50000 418.400000
7569 13779 7968 1 109.50000 418.400000
7569 13779 8432 1 109.50000 418.400000
7569 13779 8433 1 109.50000 418.400000
7968 13779 8432 1 109.50000 418.400000
7968 13779 8433 1 109.50000 418.400000
8432 13779 8433 1 109.50000 418.400000
1151 13780 7600 1 109.50000 418.400000
1151 13780 8434 1 109.50000 418.400000
1151 13780 8435 1 109.50000 418.400000
7600 13780 8434 1 109.50000 418.400000
7600 13780 8435 1 109.50000 418.400000
8434 13780 8435 1 109.50000 418.400000
887 13781 8369 1 109.50000 418.400000
887 13781 8438 1 109.50000 418.400000
887 13781 8439 1 109.50000 418.400000
8369 13781 8438 1 109.50000 418.400000
8369 13781 8439 1 109.50000 418.400000
8438 13781 8439 1 109.50000 418.400000
3941 13782 4544 1 109.50000 418.400000
3941 13782 8440 1 109.50000 418.400000
3941 13782 8441 1 109.50000 418.400000
4544 13782 8440 1 109.50000 418.400000
4544 13782 8441 1 109.50000 418.400000
8440 13782 8441 1 109.50000 418.400000
4828 13783 5309 1 109.50000 418.400000
4828 13783 7694 1 109.50000 418.400000
4828 13783 8442 1 109.50000 418.400000
5309 13783 7694 1 109.50000 418.400000
5309 13783 8442 1 109.50000 418.400000
7694 13783 8442 1 109.50000 418.400000
809 13784 2792 1 109.50000 418.400000
809 13784 8151 1 109.50000 418.400000
809 13784 8443 1 109.50000 418.400000
2792 13784 8151 1 109.50000 418.400000
2792 13784 8443 1 109.50000 418.400000
8151 13784 8443 1 109.50000 418.400000
1737 13785 5982 1 109.50000 418.400000
1737 13785 8444 1 109.50000 418.400000
1737 13785 10296 1 109.50000 418.400000
5982 13785 8444 1 109.50000 418.400000
5982 13785 10296 1 109.50000 418.400000
8444 13785 10296 1 109.50000 418.400000
2120 13786 8445 1 109.50000 418.400000
2120 13786 8446 1 109.50000 418.400000
2120 13786 8447 1 109.50000 418.400000
8445 13786 8446 1 109.50000 418.400000
8445 13786 8447 1 109.50000 418.400000
8446 13786 8447 1 109.50000 418.400000
1255 13787 4993 1 109.50000 418.400000
1255 13787 8448 1 109.50000 418.400000
1255 13787 8449 1 109.50000 418.400000
4993 13787 8448 1 109.50000 418.400000
4993 13787 8449 1 109.50000 418.400000
8448 13787 8449 1 109.50000 418.400000
8451 13788 8452 1 109.50000 418.400000
8451 13788 8453 1 109.50000 418.400000
8451 13788 10489 1 109.50000 418.400000
8452 13788 8453 1 109.50000 418.400000
8452 13788 10489 1 109.50000 418.400000
8453 13788 10489 1 109.50000 418.400000
40 13789 3667 1 109.50000 418.400000
40 13789 5549 1 109.50000 418.400000
40 13789 8455 1 109.50000 418.400000
3667 13789 5549 1 109.50000 418.400000
3667 13789 8455 1 109.50000 418.400000
5549 13789 8455 1 109.50000 418.400000
2182 13790 5336 1 109.50000 418.400000
2182 13790 5337 1 109.50000 418.400000
2182 13790 8193 1 109.50000 418.400000
5336 13790 5337 1 109.50000 418.400000
5336 13790 8193 1 109.50000 418.400000
5337 13790 8193 1 109.50000 418.400000
1785 13791 3637 1 109.50000 418.400000
1785 13791 8457 1 109.50000 418.400000
1785 13791 8458 1 109.50000 418.400000
3637 13791 8457 1 109.50000 418.400000
3637 13791 8458 1 109.50000 418.400000
8457 13791 8458 1 109.50000 418.400000
3714 13792 3955 1 109.50000 418.400000
3714 13792 7185 1 109.50000 418.400000
3714 13792 8460 1 109.50000 418.400000
3955 13792 7185 1 109.50000 418.400000
3955 13792 8460 1 109.50000 418.400000
7185 13792 8460 1 109.50000 418.400000
57 13793 8462 1 109.50000 418.400000
57 13793 8463 1 109.50000 418.400000
57 13793 8464 1 109.50000 418.400000
8462 13793 8463 1 109.50000 418.400000
8462 13793 8464 1 109.50000 418.400000
8463 13793 8464 1 109.50000 418.400000
158 13794 5937 1 109.50000 418.400000
158 13794 8465 1 109.50000 418.400000
158 13794 8466 1 109.50000 418.400000
5937 13794 8465 1 109.50000 418.400000
5937 13794 8466 1 109.50000 418.400000
8465 13794 8466 1 109.50000 418.400000
1564 13795 5066 1 109.50000 418.400000
1564 13795 6326 1 109.50000 418.400000
1564 13795 8467 1 109.50000 418.400000
5066 13795 6326 1 109.50000 418.400000
5066 13795 8467 1 109.50000 418.400000
6326 13795 8467 1 109.50000 418.400000
8468 13796 8469 1 109.50000 418.400000
8468 13796 8470 1 109.50000 418.400000
8468 13796 8471 1 109.50000 418.400000
8469 13796 8470 1 109.50000 418.400000
8469 13796 8471 1 109.50000 418.400000
8470 13796 8471 1 109.50000 418.400000
2766 13797 3469 1 109.50000 418.400000
2766 13797 6723 1 109.50000 418.400000
2766 13797 8472 1 109.50000 418.400000
3469 13797 6723 1 109.50000 418.400000
3469 13797 8472 1 109.50000 418.400000
6723 13797 8472 1 109.50000 418.400000
1365 13798 5944 1 109.50000 418.400000
1365 13798 7058 1 109.50000 418.400000
1365 13798 7397 1 109.50000 418.400000
5944 13798 7058 1 109.50000 418.400000
5944 13798 7397 1 109.50000 418.400000
7058 13798 7397 1 109.50000 418.400000
1336 13799 6940 1 109.50000 418.400000
1336 13799 7618 1 109.50000 418.400000
1336 13799 8475 1 109.50000 418.400000
6940 13799 7618 1 109.50000 418.400000
6940 13799 8475 1 109.50000 418.400000
7618 13799 8475 1 109.50000 418.400000
4655 13800 7737 1 109.50000 418.400000
4655 13800 8476 1 109.50000 418.400000
4655 13800 8477 1 109.50000 418.400000
7737 13800 8476 1 109.50000 418.400000
7737 13800 8477 1 109.50000 418.400000
8476 13800 8477 1 109.50000 418.400000
5729 13801 8478 1 109.50000 418.400000
5729 13801 8479 1 109.50000 418.400000
5729 13801 8480 1 109.50000 418.400000
8478 13801 8479 1 109.50000 418.400000
8478 13801 8480 1 109.50000 418.400000
8479 13801 8480 1 109.50000 418.400000
5250 13802 6998 1 109.50000 418.400000
5250 13802 8481 1 109.50000 418.400000
5250 13802 8482 1 109.50000 418.400000
6998 13802 8481 1 109.50000 418.400000
6998 13802 8482 1 109.50000 418.400000
8481 13802 8482 1 109.50000 418.400000
2973 13803 3357 1 109.50000 418.400000
2973 13803 3359 1 109.50000 418.400000
2973 13803 8483 1 109.50000 418.400000
3357 13803 3359 1 109.50000 418.400000
3357 13803 8483 1 109.50000 418.400000
3359 13803 8483 1 109.50000 418.400000
4402 13804 5663 1 109.50000 418.400000
4402 13804 8484 1 109.50000 418.400000
4402 13804 8485 1 109.50000 418.400000
5663 13804 8484 1 109.50000 418.400000
5663 13804 8485 1 109.50000 418.400000
8484 13804 8485 1 109.50000 418.400000
3433 13805 8486 1 109.50000 418.400000
3433 13805 8487 1 109.50000 418.400000
3433 13805 8488 1 109.50000 418.400000
8486 13805 8487 1 109.50000 418.400000
8486 13805 8488 1 109.50000 418.400000
8487 13805 8488 1 109.50000 418.400000
3334 13806 8489 1 109.50000 418.400000
3334 13806 8490 1 109.50000 418.400000
3334 13806 8491 1 109.50000 418.400000
8489 13806 8490 1 109.50000 418.400000
8489 13806 8491 1 109.50000 418.400000
8490 13806 8491 1 109.50000 418.400000
5040 13807 7525 1 109.50000 418.400000
5040 13807 8493 1 109.50000 418.400000
5040 13807 8494 1 109.50000 418.400000
7525 13807 8493 1 109.50000 418.400000
7525 13807 8494 1 109.50000 418.400000
8493 13807 8494 1 109.50000 418.400000
4823 13808 7480 1 109.50000 418.400000
4823 13808 8495 1 109.50000 418.400000
4823 13808 8496 1 109.50000 418.400000
7480 13808 8495 1 109.50000 418.400000
7480 13808 8496 1 109.50000 418.400000
8495 13808 8496 1 109.50000 418.400000
7637 13809 8498 1 109.50000 418.400000
7637 13809 8500 1 109.50000 418.400000
7637 13809 10407 1 109.50000 418.400000
8498 13809 8500 1 109.50000 418.400000
8498 13809 10407 1 109.50000 418.400000
8500 13809 10407 1 109.50000 418.400000
7298 13810 8502 1 109.50000 418.400000
7298 13810 8503 1 109.50000 418.400000
7298 13810 8504 1 109.50000 418.400000
8502 13810 8503 1 109.50000 418.400000
8502 13810 8504 1 109.50000 418.400000
8503 13810 8504 1 109.50000 418.400000
3133 13811 3134 1 109.50000 418.400000
3133 13811 3135 1 109.50000 418.400000
3133 13811 5068 1 109.50000 418.400000
3134 13811 3135 1 109.50000 418.400000
3134 13811 5068 1 109.50000 418.400000
3135 13811 5068 1 109.50000 418.400000
3415 13812 8257 1 109.50000 418.400000
3415 13812 8507 1 109.50000 418.400000
3415 13812 10406 1 109.50000 418.400000
8257 13812 8507 1 109.50000 418.400000
8257 13812 10406 1 109.50000 418.400000
8507 13812 10406 1 109.50000 418.400000
3708 13813 8508 1 109.50000 418.400000
3708 13813 8509 1 109.50000 418.400000
3708 13813 8510 1 109.50000 418.400000
8508 13813 8509 1 109.50000 418.400000
8508 13813 8510 1 109.50000 418.400000
8509 13813 8510 1 109.50000 418.400000
898 13814 1403 1 109.50000 418.400000
898 13814 1405 1 109.50000 418.400000
898 13814 8513 1 109.50000 418.400000
1403 13814 1405 1 109.50000 418.400000
1403 13814 8513 1 109.50000 418.400000
1405 13814 8513 1 109.50000 418.400000
2401 13815 8514 1 109.50000 418.400000
2401 13815 8515 1 109.50000 418.400000
2401 13815 8516 1 109.50000 418.400000
8514 13815 8515 1 109.50000 418.400000
8514 13815 8516 1 109.50000 418.400000
8515 13815 8516 1 109.50000 418.400000
447 13816 3811 1 109.50000 418.400000
447 13816 4226 1 109.50000 418.400000
447 13816 8517 1 109.50000 418.400000
3811 13816 4226 1 109.50000 418.400000
3811 13816 8517 1 109.50000 418.400000
4226 13816 8517 1 109.50000 418.400000
3076 13817 8078 1 109.50000 418.400000
3076 13817 8445 1 109.50000 418.400000
3076 13817 8519 1 109.50000 418.400000
8078 13817 8445 1 109.50000 418.400000
8078 13817 8519 1 109.50000 418.400000
8445 13817 8519 1 109.50000 418.400000
3144 13818 8521 1 109.50000 418.400000
3144 13818 8522 1 109.50000 418.400000
3144 13818 10638 1 109.50000 418.400000
8521 13818 8522 1 109.50000 418.400000
8521 13818 10638 1 109.50000 418.400000
8522 13818 10638 1 109.50000 418.400000
259 13819 8163 1 109.50000 418.400000
259 13819 8523 1 109.50000 418.400000
259 13819 8524 1 109.50000 418.400000
8163 13819 8523 1 109.50000 418.400000
8163 13819 8524 1 109.50000 418.400000
8523 13819 8524 1 109.50000 418.400000
235 13820 236 1 109.50000 418.400000
235 13820 237 1 109.50000 418.400000
235 13820 238 1 109.50000 418.400000
236 13820 237 1 109.50000 418.400000
236 13820 238 1 109.50000 418.400000
237 13820 238 1 109.50000 418.400000
6903 13821 8353 1 109.50000 418.400000
6903 13821 8528 1 109.50000 418.400000
6903 13821 8529 1 109.50000 418.400000
8353 13821 8528 1 109.50000 418.400000
8353 13821 8529 1 109.50000 418.400000
8528 13821 8529 1 109.50000 418.400000
683 13822 685 1 109.50000 418.400000
683 13822 8530 1 109.50000 418.400000
683 13822 8531 1 109.50000 418.400000
685 13822 8530 1 109.50000 418.400000
685 13822 8531 1 109.50000 418.400000
8530 13822 8531 1 109.50000 418.400000
1675 13823 8532 1 109.50000 418.400000
1675 13823 8533 1 109.50000 418.400000
1675 13823 8534 1 109.50000 418.400000
8532 13823 8533 1 109.50000 418.400000
8532 13823 8534 1 109.50000 418.400000
8533 13823 8534 1 109.50000 418.400000
4442 13824 8535 1 109.50000 418.400000
4442 13824 8536 1 109.50000 418.400000
4442 13824 8537 1 109.50000 418.400000
8535 13824 8536 1 109.50000 418.400000
8535 13824 8537 1 109.50000 418.400000
8536 13824 8537 1 109.50000 418.400000
1799 13825 8506 1 109.50000 418.400000
1799 13825 8538 1 109.50000 418.400000
1799 13825 8539 1 109.50000 418.400000
8506 13825 8538 1 109.50000 418.400000
8506 13825 8539 1 109.50000 418.400000
8538 13825 8539 1 109.50000 418.400000
1087 13826 8540 1 109.50000 418.400000
1087 13826 8541 1 109.50000 418.400000
1087 13826 8542 1 109.50000 418.400000
8540 13826 8541 1 109.50000 418.400000
8540 13826 8542 1 109.50000 418.400000
8541 13826 8542 1 109.50000 418.400000
567 13827 8543 1 109.50000 418.400000
567 13827 8544 1 109.50000 418.400000
567 13827 8545 1 109.50000 418.400000
8543 13827 8544 1 109.50000 418.400000
8543 13827 8545 1 109.50000 418.400000
8544 13827 8545 1 109.50000 418.400000
421 13828 4011 1 109.50000 418.400000
421 13828 8343 1 109.50000 418.400000
421 13828 8546 1 109.50000 418.400000
4011 13828 8343 1 109.50000 418.400000
4011 13828 8546 1 109.50000 418.400000
8343 13828 8546 1 109.50000 418.400000
4212 13829 8547 1 109.50000 418.400000
4212 13829 8548 1 109.50000 418.400000
4212 13829 8549 1 109.50000 418.400000
8547 13829 8548 1 109.50000 418.400000
8547 13829 8549 1 109.50000 418.400000
8548 13829 8549 1 109.50000 418.400000
565 13830 8551 1 109.50000 418.400000
565 13830 8552 1 109.50000 418.400000
565 13830 8553 1 109.50000 418.400000
8551 13830 8552 1 109.50000 418.400000
8551 13830 8553 1 109.50000 418.400000
8552 13830 8553 1 109.50000 418.400000
1948 13831 6145 1 109.50000 418.400000
1948 13831 6146 1 109.50000 418.400000
1948 13831 6147 1 109.50000 418.400000
6145 13831 6146 1 109.50000 418.400000
6145 13831 6147 1 109.50000 418.400000
6146 13831 6147 1 109.50000 418.400000
7075 13832 7999 1 109.50000 418.400000
7075 13832 8554 1 109.50000 418.400000
7075 13832 8555 1 109.50000 418.400000
7999 13832 8554 1 109.50000 418.400000
7999 13832 8555 1 109.50000 418.400000
8554 13832 8555 1 109.50000 418.400000
6370 13833 8007 1 109.50000 418.400000
6370 13833 8556 1 109.50000 418.400000
6370 13833 8557 1 109.50000 418.400000
8007 13833 8556 1 109.50000 418.400000
8007 13833 8557 1 109.50000 418.400000
8556 13833 8557 1 109.50000 418.400000
4453 13834 4712 1 109.50000 418.400000
4453 13834 8558 1 109.50000 418.400000
4453 13834 8559 1 109.50000 418.400000
4712 13834 8558 1 109.50000 418.400000
4712 13834 8559 1 109.50000 418.400000
8558 13834 8559 1 109.50000 418.400000
5758 13835 8338 1 109.50000 418.400000
5758 13835 8560 1 109.50000 418.400000
5758 13835 8561 1 109.50000 418.400000
8338 13835 8560 1 109.50000 418.400000
8338 13835 8561 1 109.50000 418.400000
8560 13835 8561 1 109.50000 418.400000
2512 13836 7876 1 109.50000 418.400000
2512 13836 8414 1 109.50000 418.400000
2512 13836 8563 1 109.50000 418.400000
7876 13836 8414 1 109.50000 418.400000
7876 13836 8563 1 109.50000 418.400000
8414 13836 8563 1 109.50000 418.400000
192 13837 6424 1 109.50000 418.400000
192 13837 8564 1 109.50000 418.400000
192 13837 8565 1 109.50000 418.400000
6424 13837 8564 1 109.50000 418.400000
6424 13837 8565 1 109.50000 418.400000
8564 13837 8565 1 109.50000 418.400000
705 13838 6707 1 109.50000 418.400000
705 13838 6769 1 109.50000 418.400000
705 13838 8566 1 109.50000 418.400000
6707 13838 6769 1 109.50000 418.400000
6707 13838 8566 1 109.50000 418.400000
6769 13838 8566 1 109.50000 418.400000
1883 13839 5101 1 109.50000 418.400000
1883 13839 8171 1 109.50000 418.400000
1883 13839 8567 1 109.50000 418.400000
5101 13839 8171 1 109.50000 418.400000
5101 13839 8567 1 109.50000 418.400000
8171 13839 8567 1 109.50000 418.400000
5752 13840 6385 1 109.50000 418.400000
5752 13840 8568 1 109.50000 418.400000
5752 13840 8569 1 109.50000 418.400000
6385 13840 8568 1 109.50000 418.400000
6385 13840 8569 1 109.50000 418.400000
8568 13840 8569 1 109.50000 418.400000
5541 13841 8570 1 109.50000 418.400000
5541 13841 8571 1 109.50000 418.400000
5541 13841 8572 1 109.50000 418.400000
8570 13841 8571 1 109.50000 418.400000
8570 13841 8572 1 109.50000 418.400000
8571 13841 8572 1 109.50000 418.400000
642 13842 4906 1 109.50000 418.400000
642 13842 7467 1 109.50000 418.400000
642 13842 8100 1 109.50000 418.400000
4906 13842 7467 1 109.50000 418.400000
4906 13842 8100 1 109.50000 418.400000
7467 13842 8100 1 109.50000 418.400000
2530 13843 4395 1 109.50000 418.400000
2530 13843 8318 1 109.50000 418.400000
2530 13843 8575 1 109.50000 418.400000
4395 13843 8318 1 109.50000 418.400000
4395 13843 8575 1 109.50000 418.400000
8318 13843 8575 1 109.50000 418.400000
8576 13844 8577 1 109.50000 418.400000
8576 13844 8578 1 109.50000 418.400000
8576 13844 8579 1 109.50000 418.400000
8577 13844 8578 1 109.50000 418.400000
8577 13844 8579 1 109.50000 418.400000
8578 13844 8579 1 109.50000 418.400000
1545 13845 7839 1 109.50000 418.400000
1545 13845 8580 1 109.50000 418.400000
1545 13845 8581 1 109.50000 418.400000
7839 13845 8580 1 109.50000 418.400000
7839 13845 8581 1 109.50000 418.400000
8580 13845 8581 1 109.50000 418.400000
2306 13846 5192 1 109.50000 418.400000
2306 13846 6231 1 109.50000 418.400000
2306 13846 8582 1 109.50000 418.400000
5192 13846 6231 1 109.50000 418.400000
5192 13846 8582 1 109.50000 418.400000
6231 13846 8582 1 109.50000 418.400000
8583 13847 8584 1 109.50000 418.400000
8583 13847 8585 1 109.50000 418.400000
8583 13847 10727 1 109.50000 418.400000
8584 13847 8585 1 109.50000 418.400000
8584 13847 10727 1 109.50000 418.400000
8585 13847 10727 1 109.50000 418.400000
5568 13848 6462 1 109.50000 418.400000
5568 13848 8586 1 109.50000 418.400000
5568 13848 8587 1 109.50000 418.400000
6462 13848 8586 1 109.50000 418.400000
6462 13848 8587 1 109.50000 418.400000
8586 13848 8587 1 109.50000 418.400000
798 13849 4736 1 109.50000 418.400000
798 13849 8588 1 109.50000 418.400000
798 13849 8589 1 109.50000 418.400000
4736 13849 8588 1 109.50000 418.400000
4736 13849 8589 1 109.50000 418.400000
8588 13849 8589 1 109.50000 418.400000
1371 13850 8590 1 109.50000 418.400000
1371 13850 8591 1 109.50000 418.400000
1371 13850 8592 1 109.50000 418.400000
8590 13850 8591 1 109.50000 418.400000
8590 13850 8592 1 109.50000 418.400000
8591 13850 8592 1 109.50000 418.400000
5445 13851 5446 1 109.50000 418.400000
5445 13851 8594 1 109.50000 418.400000
5445 13851 8595 1 109.50000 418.400000
5446 13851 8594 1 109.50000 418.400000
5446 13851 8595 1 109.50000 418.400000
8594 13851 8595 1 109.50000 418.400000
273 13852 8596 1 109.50000 418.400000
273 13852 8597 1 109.50000 418.400000
273 13852 8598 1 109.50000 418.400000
8596 13852 8597 1 109.50000 418.400000
8596 13852 8598 1 109.50000 418.400000
8597 13852 8598 1 109.50000 418.400000
8068 13853 8599 1 109.50000 418.400000
8068 13853 8600 1 109.50000 418.400000
8068 13853 8601 1 109.50000 418.400000
8599 13853 8600 1 109.50000 418.400000
8599 13853 8601 1 109.50000 418.400000
8600 13853 8601 1 109.50000 418.400000
7823 13854 8244 1 109.50000 418.400000
7823 13854 8602 1 109.50000 418.400000
7823 13854 8603 1 109.50000 418.400000
8244 13854 8602 1 109.50000 418.400000
8244 13854 8603 1 109.50000 418.400000
8602 13854 8603 1 109.50000 418.400000
2359 13855 3926 1 109.50000 418.400000
2359 13855 6933 1 109.50000 418.400000
2359 13855 8125 1 109.50000 418.400000
3926 13855 6933 1 109.50000 418.400000
3926 13855 8125 1 109.50000 418.400000
6933 13855 8125 1 109.50000 418.400000
1249 13856 5587 1 109.50000 418.400000
1249 13856 6876 1 109.50000 418.400000
1249 13856 8604 1 109.50000 418.400000
5587 13856 6876 1 109.50000 418.400000
5587 13856 8604 1 109.50000 418.400000
6876 13856 8604 1 109.50000 418.400000
8605 13857 8606 1 109.50000 418.400000
8605 13857 8607 1 109.50000 418.400000
8605 13857 8608 1 109.50000 418.400000
8606 13857 8607 1 109.50000 418.400000
8606 13857 8608 1 109.50000 418.400000
8607 13857 8608 1 109.50000 418.400000
169 13858 7251 1 109.50000 418.400000
169 13858 7252 1 109.50000 418.400000
169 13858 8609 1 109.50000 418.400000
7251 13858 7252 1 109.50000 418.400000
7251 13858 8609 1 109.50000 418.400000
7252 13858 8609 1 109.50000 418.400000
1911 13859 1912 1 109.50000 418.400000
1911 13859 8610 1 109.50000 418.400000
1911 13859 8611 1 109.50000 418.400000
1912 13859 8610 1 109.50000 418.400000
1912 13859 8611 1 109.50000 418.400000
8610 13859 8611 1 109.50000 418.400000
6155 13860 7907 1 109.50000 418.400000
6155 13860 8613 1 109.50000 418.400000
6155 13860 8614 1 109.50000 418.400000
7907 13860 8613 1 109.50000 418.400000
7907 13860 8614 1 109.50000 418.400000
8613 13860 8614 1 109.50000 418.400000
6228 13861 8041 1 109.50000 418.400000
6228 13861 8615 1 109.50000 418.400000
6228 13861 8616 1 109.50000 418.400000
8041 13861 8615 1 109.50000 418.400000
8041 13861 8616 1 109.50000 418.400000
8615 13861 8616 1 109.50000 418.400000
5526 13862 8555 1 109.50000 418.400000
5526 13862 8619 1 109.50000 418.400000
5526 13862 8620 1 109.50000 418.400000
8555 13862 8619 1 109.50000 418.400000
8555 13862 8620 1 109.50000 418.400000
8619 13862 8620 1 109.50000 418.400000
671 13863 673 1 109.50000 418.400000
671 13863 8623 1 109.50000 418.400000
671 13863 8624 1 109.50000 418.400000
673 13863 8623 1 109.50000 418.400000
673 13863 8624 1 109.50000 418.400000
8623 13863 8624 1 109.50000 418.400000
1089 13864 1175 1 109.50000 418.400000
1089 13864 4769 1 109.50000 418.400000
1089 13864 8625 1 109.50000 418.400000
1175 13864 4769 1 109.50000 418.400000
1175 13864 8625 1 109.50000 418.400000
4769 13864 8625 1 109.50000 418.400000
8626 13865 8627 1 109.50000 418.400000
8626 13865 8628 1 109.50000 418.400000
8626 13865 8629 1 109.50000 418.400000
8627 13865 8628 1 109.50000 418.400000
8627 13865 8629 1 109.50000 418.400000
8628 13865 8629 1 109.50000 418.400000
5249 13866 6101 1 109.50000 418.400000
5249 13866 6759 1 109.50000 418.400000
5249 13866 8630 1 109.50000 418.400000
6101 13866 6759 1 109.50000 418.400000
6101 13866 8630 1 109.50000 418.400000
6759 13866 8630 1 109.50000 418.400000
6154 13867 8631 1 109.50000 418.400000
6154 13867 8632 1 109.50000 418.400000
6154 13867 8633 1 109.50000 418.400000
8631 13867 8632 1 109.50000 418.400000
8631 13867 8633 1 109.50000 418.400000
8632 13867 8633 1 109.50000 418.400000
2753 13868 3208 1 109.50000 418.400000
2753 13868 5620 1 109.50000 418.400000
2753 13868 8639 1 109.50000 418.400000
3208 13868 5620 1 109.50000 418.400000
3208 13868 8639 1 109.50000 418.400000
5620 13868 8639 1 109.50000 418.400000
1431 13869 3863 1 109.50000 418.400000
1431 13869 8640 1 109.50000 418.400000
1431 13869 10134 1 109.50000 418.400000
3863 13869 8640 1 109.50000 418.400000
3863 13869 10134 1 109.50000 418.400000
8640 13869 10134 1 109.50000 418.400000
1885 13870 5835 1 109.50000 418.400000
1885 13870 8641 1 109.50000 418.400000
1885 13870 8642 1 109.50000 418.400000
5835 13870 8641 1 109.50000 418.400000
5835 13870 8642 1 109.50000 418.400000
8641 13870 8642 1 109.50000 418.400000
1953 13871 7589 1 109.50000 418.400000
1953 13871 8643 1 109.50000 418.400000
1953 13871 8644 1 109.50000 418.400000
7589 13871 8643 1 109.50000 418.400000
7589 13871 8644 1 109.50000 418.400000
8643 13871 8644 1 109.50000 418.400000
3541 13872 4399 1 109.50000 418.400000
3541 13872 8645 1 109.50000 418.400000
3541 13872 8646 1 109.50000 418.400000
4399 13872 8645 1 109.50000 418.400000
4399 13872 8646 1 109.50000 418.400000
8645 13872 8646 1 109.50000 418.400000
1599 13873 1771 1 109.50000 418.400000
1599 13873 8649 1 109.50000 418.400000
1599 13873 8650 1 109.50000 418.400000
1771 13873 8649 1 109.50000 418.400000
1771 13873 8650 1 109.50000 418.400000
8649 13873 8650 1 109.50000 418.400000
1353 13874 5796 1 109.50000 418.400000
1353 13874 7943 1 109.50000 418.400000
1353 13874 8651 1 109.50000 418.400000
5796 13874 7943 1 109.50000 418.400000
5796 13874 8651 1 109.50000 418.400000
7943 13874 8651 1 109.50000 418.400000
3022 13875 4984 1 109.50000 418.400000
3022 13875 8386 1 109.50000 418.400000
3022 13875 8652 1 109.50000 418.400000
4984 13875 8386 1 109.50000 418.400000
4984 13875 8652 1 109.50000 418.400000
8386 13875 8652 1 109.50000 418.400000
2079 13876 3092 1 109.50000 418.400000
2079 13876 8653 1 109.50000 418.400000
2079 13876 8654 1 109.50000 418.400000
3092 13876 8653 1 109.50000 418.400000
3092 13876 8654 1 109.50000 418.400000
8653 13876 8654 1 109.50000 418.400000
2423 13877 5314 1 109.50000 418.400000
2423 13877 8655 1 109.50000 418.400000
2423 13877 8656 1 109.50000 418.400000
5314 13877 8655 1 109.50000 418.400000
5314 13877 8656 1 109.50000 418.400000
8655 13877 8656 1 109.50000 418.400000
349 13878 4436 1 109.50000 418.400000
349 13878 8231 1 109.50000 418.400000
349 13878 8659 1 109.50000 418.400000
4436 13878 8231 1 109.50000 418.400000
4436 13878 8659 1 109.50000 418.400000
8231 13878 8659 1 109.50000 418.400000
3226 13879 6832 1 109.50000 418.400000
3226 13879 8660 1 109.50000 418.400000
3226 13879 8661 1 109.50000 418.400000
6832 13879 8660 1 109.50000 418.400000
6832 13879 8661 1 109.50000 418.400000
8660 13879 8661 1 109.50000 418.400000
8662 13880 8663 1 109.50000 418.400000
8662 13880 8664 1 109.50000 418.400000
8662 13880 8665 1 109.50000 418.400000
8663 13880 8664 1 109.50000 418.400000
8663 13880 8665 1 109.50000 418.400000
8664 13880 8665 1 109.50000 418.400000
2810 13881 7035 1 109.50000 418.400000
2810 13881 8668 1 109.50000 418.400000
2810 13881 10862 1 109.50000 418.400000
7035 13881 8668 1 109.50000 418.400000
7035 13881 10862 1 109.50000 418.400000
8668 13881 10862 1 109.50000 418.400000
2931 13882 4113 1 109.50000 418.400000
2931 13882 7501 1 109.50000 418.400000
2931 13882 8669 1 109.50000 418.400000
4113 13882 7501 1 109.50000 418.400000
4113 13882 8669 1 109.50000 418.400000
7501 13882 8669 1 109.50000 418.400000
771 13883 4490 1 109.50000 418.400000
771 13883 8670 1 109.50000 418.400000
771 13883 8671 1 109.50000 418.400000
4490 13883 8670 1 109.50000 418.400000
4490 13883 8671 1 109.50000 418.400000
8670 13883 8671 1 109.50000 418.400000
2387 13884 4945 1 109.50000 418.400000
2387 13884 5421 1 109.50000 418.400000
2387 13884 8484 1 109.50000 418.400000
4945 13884 5421 1 109.50000 418.400000
4945 13884 8484 1 109.50000 418.400000
5421 13884 8484 1 109.50000 418.400000
2137 13885 2853 1 109.50000 418.400000
2137 13885 8673 1 109.50000 418.400000
2137 13885 8674 1 109.50000 418.400000
2853 13885 8673 1 109.50000 418.400000
2853 13885 8674 1 109.50000 418.400000
8673 13885 8674 1 109.50000 418.400000
832 13886 8476 1 109.50000 418.400000
832 13886 8528 1 109.50000 418.400000
832 13886 8628 1 109.50000 418.400000
8476 13886 8528 1 109.50000 418.400000
8476 13886 8628 1 109.50000 418.400000
8528 13886 8628 1 109.50000 418.400000
7612 13887 8675 1 109.50000 418.400000
7612 13887 8676 1 109.50000 418.400000
7612 13887 8677 1 109.50000 418.400000
8675 13887 8676 1 109.50000 418.400000
8675 13887 8677 1 109.50000 418.400000
8676 13887 8677 1 109.50000 418.400000
2856 13888 6536 1 109.50000 418.400000
2856 13888 8594 1 109.50000 418.400000
2856 13888 8678 1 109.50000 418.400000
6536 13888 8594 1 109.50000 418.400000
6536 13888 8678 1 109.50000 418.400000
8594 13888 8678 1 109.50000 418.400000
1506 13889 2943 1 109.50000 418.400000
1506 13889 8680 1 109.50000 418.400000
1506 13889 10884 1 109.50000 418.400000
2943 13889 8680 1 109.50000 418.400000
2943 13889 10884 1 109.50000 418.400000
8680 13889 10884 1 109.50000 418.400000
8681 13890 8682 1 109.50000 418.400000
8681 13890 8683 1 109.50000 418.400000
8681 13890 8684 1 109.50000 418.400000
8682 13890 8683 1 109.50000 418.400000
8682 13890 8684 1 109.50000 418.400000
8683 13890 8684 1 109.50000 418.400000
5028 13891 5781 1 109.50000 418.400000
5028 13891 5932 1 109.50000 418.400000
5028 13891 8685 1 109.50000 418.400000
5781 13891 5932 1 109.50000 418.400000
5781 13891 8685 1 109.50000 418.400000
5932 13891 8685 1 109.50000 418.400000
6935 13892 8686 1 109.50000 418.400000
6935 13892 8687 1 109.50000 418.400000
6935 13892 9384 1 109.50000 418.400000
8686 13892 8687 1 109.50000 418.400000
8686 13892 9384 1 109.50000 418.400000
8687 13892 9384 1 109.50000 418.400000
37 13893 5203 1 109.50000 418.400000
37 13893 8688 1 109.50000 418.400000
37 13893 8689 1 109.50000 418.400000
5203 13893 8688 1 109.50000 418.400000
5203 13893 8689 1 109.50000 418.400000
8688 13893 8689 1 109.50000 418.400000
1832 13894 7406 1 109.50000 418.400000
1832 13894 7799 1 109.50000 418.400000
1832 13894 8690 1 109.50000 418.400000
7406 13894 7799 1 109.50000 418.400000
7406 13894 8690 1 109.50000 418.400000
7799 13894 8690 1 109.50000 418.400000
8691 13895 8692 1 109.50000 418.400000
8691 13895 8693 1 109.50000 418.400000
8691 13895 8694 1 109.50000 418.400000
8692 13895 8693 1 109.50000 418.400000
8692 13895 8694 1 109.50000 418.400000
8693 13895 8694 1 109.50000 418.400000
747 13896 7297 1 109.50000 418.400000
747 13896 8211 1 109.50000 418.400000
747 13896 8695 1 109.50000 418.400000
7297 13896 8211 1 109.50000 418.400000
7297 13896 8695 1 109.50000 418.400000
8211 13896 8695 1 109.50000 418.400000
3833 13897 5545 1 109.50000 418.400000
3833 13897 8696 1 109.50000 418.400000
3833 13897 9940 1 109.50000 418.400000
5545 13897 8696 1 109.50000 418.400000
5545 13897 9940 1 109.50000 418.400000
8696 13897 9940 1 109.50000 418.400000
5304 13898 6528 1 109.50000 418.400000
5304 13898 7394 1 109.50000 418.400000
5304 13898 8697 1 109.50000 418.400000
6528 13898 7394 1 109.50000 418.400000
6528 13898 8697 1 109.50000 418.400000
7394 13898 8697 1 109.50000 418.400000
402 13899 6739 1 109.50000 418.400000
402 13899 8698 1 109.50000 418.400000
402 13899 8699 1 109.50000 418.400000
6739 13899 8698 1 109.50000 418.400000
6739 13899 8699 1 109.50000 418.400000
8698 13899 8699 1 109.50000 418.400000
6600 13900 8700 1 109.50000 418.400000
6600 13900 8701 1 109.50000 418.400000
6600 13900 11176 1 109.50000 418.400000
8700 13900 8701 1 109.50000 418.400000
8700 13900 11176 1 109.50000 418.400000
8701 13900 11176 1 109.50000 418.400000
649 13901 1639 1 109.50000 418.400000
649 13901 8702 1 109.50000 418.400000
649 13901 8703 1 109.50000 418.400000
1639 13901 8702 1 109.50000 418.400000
1639 13901 8703 1 109.50000 418.400000
8702 13901 8703 1 109.50000 418.400000
1798 13902 6143 1 109.50000 418.400000
1798 13902 8704 1 109.50000 418.400000
1798 13902 8705 1 109.50000 418.400000
6143 13902 8704 1 109.50000 418.400000
6143 13902 8705 1 109.50000 418.400000
8704 13902 8705 1 109.50000 418.400000
3482 13903 3579 1 109.50000 418.400000
3482 13903 8504 1 109.50000 418.400000
3482 13903 8706 1 109.50000 418.400000
3579 13903 8504 1 109.50000 418.400000
3579 13903 8706 1 109.50000 418.400000
8504 13903 8706 1 109.50000 418.400000
1398 13904 3999 1 109.50000 418.400000
1398 13904 6183 1 109.50000 418.400000
1398 13904 7603 1 109.50000 418.400000
3999 13904 6183 1 109.50000 418.400000
3999 13904 7603 1 109.50000 418.400000
6183 13904 7603 1 109.50000 418.400000
4249 13905 8707 1 109.50000 418.400000
4249 13905 8708 1 109.50000 418.400000
4249 13905 8709 1 109.50000 418.400000
8707 13905 8708 1 109.50000 418.400000
8707 13905 8709 1 109.50000 418.400000
8708 13905 8709 1 109.50000 418.400000
7706 13906 7905 1 109.50000 418.400000
7706 13906 8710 1 109.50000 418.400000
7706 13906 8711 1 109.50000 418.400000
7905 13906 8710 1 109.50000 418.400000
7905 13906 8711 1 109.50000 418.400000
8710 13906 8711 1 109.50000 418.400000
3113 13907 4742 1 109.50000 418.400000
3113 13907 7215 1 109.50000 418.400000
3113 13907 8712 1 109.50000 418.400000
4742 13907 7215 1 109.50000 418.400000
4742 13907 8712 1 109.50000 418.400000
7215 13907 8712 1 109.50000 418.400000
20 13908 1035 1 109.50000 418.400000
20 13908 8713 1 109.50000 418.400000
20 13908 8714 1 109.50000 418.400000
1035 13908 8713 1 109.50000 418.400000
1035 13908 8714 1 109.50000 418.400000
8713 13908 8714 1 109.50000 418.400000
2874 13909 6910 1 109.50000 418.400000
2874 13909 7025 1 109.50000 418.400000
2874 13909 8715 1 109.50000 418.400000
6910 13909 7025 1 109.50000 418.400000
6910 13909 8715 1 109.50000 418.400000
7025 13909 8715 1 109.50000 418.400000
3118 13910 8716 1 109.50000 418.400000
3118 13910 8717 1 109.50000 418.400000
3118 13910 8718 1 109.50000 418.400000
8716 13910 8717 1 109.50000 418.400000
8716 13910 8718 1 109.50000 418.400000
8717 13910 8718 1 109.50000 418.400000
706 13911 5985 1 109.50000 418.400000
706 13911 8719 1 109.50000 418.400000
706 13911 8720 1 109.50000 418.400000
5985 13911 8719 1 109.50000 418.400000
5985 13911 8720 1 109.50000 418.400000
8719 13911 8720 1 109.50000 418.400000
381 13912 5281 1 109.50000 418.400000
381 13912 8721 1 109.50000 418.400000
381 13912 8722 1 109.50000 418.400000
5281 13912 8721 1 109.50000 418.400000
5281 13912 8722 1 109.50000 418.400000
8721 13912 8722 1 109.50000 418.400000
2622 13913 8723 1 109.50000 418.400000
2622 13913 8724 1 109.50000 418.400000
2622 13913 8725 1 109.50000 418.400000
8723 13913 8724 1 109.50000 418.400000
8723 13913 8725 1 109.50000 418.400000
8724 13913 8725 1 109.50000 418.400000
2936 13914 8227 1 109.50000 418.400000
2936 13914 8726 1 109.50000 418.400000
2936 13914 8727 1 109.50000 418.400000
8227 13914 8726 1 109.50000 418.400000
8227 13914 8727 1 109.50000 418.400000
8726 13914 8727 1 109.50000 418.400000
3641 13915 8728 1 109.50000 418.400000
3641 13915 8729 1 109.50000 418.400000
3641 13915 8730 1 109.50000 418.400000
8728 13915 8729 1 109.50000 418.400000
8728 13915 8730 1 109.50000 418.400000
8729 13915 8730 1 109.50000 418.400000
3518 13916 8731 1 109.50000 418.400000
3518 13916 8732 1 109.50000 418.400000
3518 13916 11232 1 109.50000 418.400000
8731 13916 8732 1 109.50000 418.400000
8731 13916 11232 1 109.50000 418.400000
8732 13916 11232 1 109.50000 418.400000
1814 13917 7104 1 109.50000 418.400000
1814 13917 8287 1 109.50000 418.400000
1814 13917 8733 1 109.50000 418.400000
7104 13917 8287 1 109.50000 418.400000
7104 13917 8733 1 109.50000 418.400000
8287 13917 8733 1 109.50000 418.400000
967 13918 6867 1 109.50000 418.400000
967 13918 6869 1 109.50000 418.400000
967 13918 8734 1 109.50000 418.400000
6867 13918 6869 1 109.50000 418.400000
6867 13918 8734 1 109.50000 418.400000
6869 13918 8734 1 109.50000 418.400000
2655 13919 2844 1 109.50000 418.400000
2655 13919 8579 1 109.50000 418.400000
2655 13919 8736 1 109.50000 418.400000
2844 13919 8579 1 109.50000 418.400000
2844 13919 8736 1 109.50000 418.400000
8579 13919 8736 1 109.50000 418.400000
411 13920 7570 1 109.50000 418.400000
411 13920 7571 1 109.50000 418.400000
411 13920 8737 1 109.50000 418.400000
7570 13920 7571 1 109.50000 418.400000
7570 13920 8737 1 109.50000 418.400000
7571 13920 8737 1 109.50000 418.400000
7511 13921 8738 1 109.50000 418.400000
7511 13921 8739 1 109.50000 418.400000
7511 13921 8740 1 109.50000 418.400000
8738 13921 8739 1 109.50000 418.400000
8738 13921 8740 1 109.50000 418.400000
8739 13921 8740 1 109.50000 418.400000
5110 13922 7513 1 109.50000 418.400000
5110 13922 7514 1 109.50000 418.400000
5110 13922 8741 1 109.50000 418.400000
7513 13922 7514 1 109.50000 418.400000
7513 13922 8741 1 109.50000 418.400000
7514 13922 8741 1 109.50000 418.400000
3764 13923 7088 1 109.50000 418.400000
3764 13923 8742 1 109.50000 418.400000
3764 13923 8743 1 109.50000 418.400000
7088 13923 8742 1 109.50000 418.400000
7088 13923 8743 1 109.50000 418.400000
8742 13923 8743 1 109.50000 418.400000
486 13924 7797 1 109.50000 418.400000
486 13924 8744 1 109.50000 418.400000
486 13924 8745 1 109.50000 418.400000
7797 13924 8744 1 109.50000 418.400000
7797 13924 8745 1 109.50000 418.400000
8744 13924 8745 1 109.50000 418.400000
3397 13925 8419 1 109.50000 418.400000
3397 13925 8746 1 109.50000 418.400000
3397 13925 10677 1 109.50000 418.400000
8419 13925 8746 1 109.50000 418.400000
8419 13925 10677 1 109.50000 418.400000
8746 13925 10677 1 109.50000 418.400000
653 13926 3264 1 109.50000 418.400000
653 13926 7669 1 109.50000 418.400000
653 13926 8711 1 109.50000 418.400000
3264 13926 7669 1 109.50000 418.400000
3264 13926 8711 1 109.50000 418.400000
7669 13926 8711 1 109.50000 418.400000
2674 13927 8747 1 109.50000 418.400000
2674 13927 8748 1 109.50000 418.400000
2674 13927 8749 1 109.50000 418.400000
8747 13927 8748 1 109.50000 418.400000
8747 13927 8749 1 109.50000 418.400000
8748 13927 8749 1 109.50000 418.400000
618 13928 3405 1 109.50000 418.400000
618 13928 4704 1 109.50000 418.400000
618 13928 8750 1 109.50000 418.400000
3405 13928 4704 1 109.50000 418.400000
3405 13928 8750 1 109.50000 418.400000
4704 13928 8750 1 109.50000 418.400000
2391 13929 4154 1 109.50000 418.400000
2391 13929 4731 1 109.50000 418.400000
2391 13929 8751 1 109.50000 418.400000
4154 13929 4731 1 109.50000 418.400000
4154 13929 8751 1 109.50000 418.400000
4731 13929 8751 1 109.50000 418.400000
2061 13930 4164 1 109.50000 418.400000
2061 13930 8752 1 109.50000 418.400000
2061 13930 8753 1 109.50000 418.400000
4164 13930 8752 1 109.50000 418.400000
4164 13930 8753 1 109.50000 418.400000
8752 13930 8753 1 109.50000 418.400000
5650 13931 8754 1 109.50000 418.400000
5650 13931 8755 1 109.50000 418.400000
5650 13931 8756 1 109.50000 418.400000
8754 13931 8755 1 109.50000 418.400000
8754 13931 8756 1 109.50000 418.400000
8755 13931 8756 1 109.50000 418.400000
2772 13932 6264 1 109.50000 418.400000
2772 13932 6709 1 109.50000 418.400000
2772 13932 6946 1 109.50000 418.400000
6264 13932 6709 1 109.50000 418.400000
6264 13932 6946 1 109.50000 418.400000
6709 13932 6946 1 109.50000 418.400000
4563 13933 5495 1 109.50000 418.400000
4563 13933 8752 1 109.50000 418.400000
4563 13933 8757 1 109.50000 418.400000
5495 13933 8752 1 109.50000 418.400000
5495 13933 8757 1 109.50000 418.400000
8752 13933 8757 1 109.50000 418.400000
1280 13934 2321 1 109.50000 418.400000
1280 13934 8758 1 109.50000 418.400000
1280 13934 8759 1 109.50000 418.400000
2321 13934 8758 1 109.50000 418.400000
2321 13934 8759 1 109.50000 418.400000
8758 13934 8759 1 109.50000 418.400000
1486 13935 3674 1 109.50000 418.400000
1486 13935 8031 1 109.50000 418.400000
1486 13935 8762 1 109.50000 418.400000
3674 13935 8031 1 109.50000 418.400000
3674 13935 8762 1 109.50000 418.400000
8031 13935 8762 1 109.50000 418.400000
1469 13936 7938 1 109.50000 418.400000
1469 13936 8545 1 109.50000 418.400000
1469 13936 8763 1 109.50000 418.400000
7938 13936 8545 1 109.50000 418.400000
7938 13936 8763 1 109.50000 418.400000
8545 13936 8763 1 109.50000 418.400000
7496 13937 8175 1 109.50000 418.400000
7496 13937 8764 1 109.50000 418.400000
7496 13937 8765 1 109.50000 418.400000
8175 13937 8764 1 109.50000 418.400000
8175 13937 8765 1 109.50000 418.400000
8764 13937 8765 1 109.50000 418.400000
6458 13938 6893 1 109.50000 418.400000
6458 13938 8766 1 109.50000 418.400000
6458 13938 8767 1 109.50000 418.400000
6893 13938 8766 1 109.50000 418.400000
6893 13938 8767 1 109.50000 418.400000
8766 13938 8767 1 109.50000 418.400000
4397 13939 4461 1 109.50000 418.400000
4397 13939 8768 1 109.50000 418.400000
4397 13939 8769 1 109.50000 418.400000
4461 13939 8768 1 109.50000 418.400000
4461 13939 8769 1 109.50000 418.400000
8768 13939 8769 1 109.50000 418.400000
6048 13940 6550 1 109.50000 418.400000
6048 13940 8770 1 109.50000 418.400000
6048 13940 8771 1 109.50000 418.400000
6550 13940 8770 1 109.50000 418.400000
6550 13940 8771 1 109.50000 418.400000
8770 13940 8771 1 109.50000 418.400000
318 13941 4157 1 109.50000 418.400000
318 13941 6701 1 109.50000 418.400000
318 13941 8747 1 109.50000 418.400000
4157 13941 6701 1 109.50000 418.400000
4157 13941 8747 1 109.50000 418.400000
6701 13941 8747 1 109.50000 418.400000
5284 13942 5492 1 109.50000 418.400000
5284 13942 8764 1 109.50000 418.400000
5284 13942 8772 1 109.50000 418.400000
5492 13942 8764 1 109.50000 418.400000
5492 13942 8772 1 109.50000 418.400000
8764 13942 8772 1 109.50000 418.400000
2187 13943 4069 1 109.50000 418.400000
2187 13943 8773 1 109.50000 418.400000
2187 13943 8774 1 109.50000 418.400000
4069 13943 8773 1 109.50000 418.400000
4069 13943 8774 1 109.50000 418.400000
8773 13943 8774 1 109.50000 418.400000
33 13944 1850 1 109.50000 418.400000
33 13944 8775 1 109.50000 418.400000
33 13944 8776 1 109.50000 418.400000
1850 13944 8775 1 109.50000 418.400000
1850 13944 8776 1 109.50000 418.400000
8775 13944 8776 1 109.50000 418.400000
1879 13945 7414 1 109.50000 418.400000
1879 13945 8778 1 109.50000 418.400000
1879 13945 8779 1 109.50000 418.400000
7414 13945 8778 1 109.50000 418.400000
7414 13945 8779 1 109.50000 418.400000
8778 13945 8779 1 109.50000 418.400000
2786 13946 8780 1 109.50000 418.400000
2786 13946 8781 1 109.50000 418.400000
2786 13946 8782 1 109.50000 418.400000
8780 13946 8781 1 109.50000 418.400000
8780 13946 8782 1 109.50000 418.400000
8781 13946 8782 1 109.50000 418.400000
429 13947 5607 1 109.50000 418.400000
429 13947 8783 1 109.50000 418.400000
429 13947 8784 1 109.50000 418.400000
5607 13947 8783 1 109.50000 418.400000
5607 13947 8784 1 109.50000 418.400000
8783 13947 8784 1 109.50000 418.400000
3006 13948 5305 1 109.50000 418.400000
3006 13948 6641 1 109.50000 418.400000
3006 13948 8785 1 109.50000 418.400000
5305 13948 6641 1 109.50000 418.400000
5305 13948 8785 1 109.50000 418.400000
6641 13948 8785 1 109.50000 418.400000
3067 13949 5005 1 109.50000 418.400000
3067 13949 8786 1 109.50000 418.400000
3067 13949 8787 1 109.50000 418.400000
5005 13949 8786 1 109.50000 418.400000
5005 13949 8787 1 109.50000 418.400000
8786 13949 8787 1 109.50000 418.400000
5212 13950 8674 1 109.50000 418.400000
5212 13950 8788 1 109.50000 418.400000
5212 13950 8789 1 109.50000 418.400000
8674 13950 8788 1 109.50000 418.400000
8674 13950 8789 1 109.50000 418.400000
8788 13950 8789 1 109.50000 418.400000
2763 13951 8790 1 109.50000 418.400000
2763 13951 8791 1 109.50000 418.400000
2763 13951 8792 1 109.50000 418.400000
8790 13951 8791 1 109.50000 418.400000
8790 13951 8792 1 109.50000 418.400000
8791 13951 8792 1 109.50000 418.400000
5631 13952 5674 1 109.50000 418.400000
5631 13952 6092 1 109.50000 418.400000
5631 13952 8795 1 109.50000 418.400000
5674 13952 6092 1 109.50000 418.400000
5674 13952 8795 1 109.50000 418.400000
6092 13952 8795 1 109.50000 418.400000
3610 13953 6521 1 109.50000 418.400000
3610 13953 8796 1 109.50000 418.400000
3610 13953 8797 1 109.50000 418.400000
6521 13953 8796 1 109.50000 418.400000
6521 13953 8797 1 109.50000 418.400000
8796 13953 8797 1 109.50000 418.400000
4932 13954 6306 1 109.50000 418.400000
4932 13954 8798 1 109.50000 418.400000
4932 13954 8799 1 109.50000 418.400000
6306 13954 8798 1 109.50000 418.400000
6306 13954 8799 1 109.50000 418.400000
8798 13954 8799 1 109.50000 418.400000
7555 13955 8800 1 109.50000 418.400000
7555 13955 8801 1 109.50000 418.400000
7555 13955 8802 1 109.50000 418.400000
8800 13955 8801 1 109.50000 418.400000
8800 13955 8802 1 109.50000 418.400000
8801 13955 8802 1 109.50000 418.400000
215 13956 6196 1 109.50000 418.400000
215 13956 8803 1 109.50000 418.400000
215 13956 8804 1 109.50000 418.400000
6196 13956 8803 1 109.50000 418.400000
6196 13956 8804 1 109.50000 418.400000
8803 13956 8804 1 109.50000 418.400000
1954 13957 8805 1 109.50000 418.400000
1954 13957 8806 1 109.50000 418.400000
1954 13957 8807 1 109.50000 418.400000
8805 13957 8806 1 109.50000 418.400000
8805 13957 8807 1 109.50000 418.400000
8806 13957 8807 1 109.50000 418.400000
5615 13958 5670 1 109.50000 418.400000
5615 13958 5821 1 109.50000 418.400000
5615 13958 8808 1 109.50000 418.400000
5670 13958 5821 1 109.50000 418.400000
5670 13958 8808 1 109.50000 418.400000
5821 13958 8808 1 109.50000 418.400000
8804 13959 8809 1 109.50000 418.400000
8804 13959 8810 1 109.50000 418.400000
8804 13959 8811 1 109.50000 418.400000
8809 13959 8810 1 109.50000 418.400000
8809 13959 8811 1 109.50000 418.400000
8810 13959 8811 1 109.50000 418.400000
5206 13960 5207 1 109.50000 418.400000
5206 13960 6503 1 109.50000 418.400000
5206 13960 8812 1 109.50000 418.400000
5207 13960 6503 1 109.50000 418.400000
5207 13960 8812 1 109.50000 418.400000
6503 13960 8812 1 109.50000 418.400000
3838 13961 4964 1 109.50000 418.400000
3838 13961 6719 1 109.50000 418.400000
3838 13961 8814 1 109.50000 418.400000
4964 13961 6719 1 109.50000 418.400000
4964 13961 8814 1 109.50000 418.400000
6719 13961 8814 1 109.50000 418.400000
4899 13962 4900 1 109.50000 418.400000
4899 13962 7224 1 109.50000 418.400000
4899 13962 8816 1 109.50000 418.400000
4900 13962 7224 1 109.50000 418.400000
4900 13962 8816 1 109.50000 418.400000
7224 13962 8816 1 109.50000 418.400000
5338 13963 6780 1 109.50000 418.400000
5338 13963 6781 1 109.50000 418.400000
5338 13963 8817 1 109.50000 418.400000
6780 13963 6781 1 109.50000 418.400000
6780 13963 8817 1 109.50000 418.400000
6781 13963 8817 1 109.50000 418.400000
7548 13964 8818 1 109.50000 418.400000
7548 13964 8819 1 109.50000 418.400000
7548 13964 9922 1 109.50000 418.400000
8818 13964 8819 1 109.50000 418.400000
8818 13964 9922 1 109.50000 418.400000
8819 13964 9922 1 109.50000 418.400000
4684 13965 5275 1 109.50000 418.400000
4684 13965 7412 1 109.50000 418.400000
4684 13965 8820 1 109.50000 418.400000
5275 13965 7412 1 109.50000 418.400000
5275 13965 8820 1 109.50000 418.400000
7412 13965 8820 1 109.50000 418.400000
7450 13966 8823 1 109.50000 418.400000
7450 13966 8824 1 109.50000 418.400000
7450 13966 11006 1 109.50000 418.400000
8823 13966 8824 1 109.50000 418.400000
8823 13966 11006 1 109.50000 418.400000
8824 13966 11006 1 109.50000 418.400000
5315 13967 5813 1 109.50000 418.400000
5315 13967 8307 1 109.50000 418.400000
5315 13967 8825 1 109.50000 418.400000
5813 13967 8307 1 109.50000 418.400000
5813 13967 8825 1 109.50000 418.400000
8307 13967 8825 1 109.50000 418.400000
3210 13968 7543 1 109.50000 418.400000
3210 13968 8666 1 109.50000 418.400000
3210 13968 8667 1 109.50000 418.400000
7543 13968 8666 1 109.50000 418.400000
7543 13968 8667 1 109.50000 418.400000
8666 13968 8667 1 109.50000 418.400000
325 13969 4040 1 109.50000 418.400000
325 13969 6439 1 109.50000 418.400000
325 13969 8642 1 109.50000 418.400000
4040 13969 6439 1 109.50000 418.400000
4040 13969 8642 1 109.50000 418.400000
6439 13969 8642 1 109.50000 418.400000
47 13970 217 1 109.50000 418.400000
47 13970 7159 1 109.50000 418.400000
47 13970 7470 1 109.50000 418.400000
217 13970 7159 1 109.50000 418.400000
217 13970 7470 1 109.50000 418.400000
7159 13970 7470 1 109.50000 418.400000
3461 13971 8827 1 109.50000 418.400000
3461 13971 8828 1 109.50000 418.400000
3461 13971 8829 1 109.50000 418.400000
8827 13971 8828 1 109.50000 418.400000
8827 13971 8829 1 109.50000 418.400000
8828 13971 8829 1 109.50000 418.400000
1007 13972 6259 1 109.50000 418.400000
1007 13972 6357 1 109.50000 418.400000
1007 13972 8830 1 109.50000 418.400000
6259 13972 6357 1 109.50000 418.400000
6259 13972 8830 1 109.50000 418.400000
6357 13972 8830 1 109.50000 418.400000
8831 13973 8832 1 109.50000 418.400000
8831 13973 8833 1 109.50000 418.400000
8831 13973 8834 1 109.50000 418.400000
8832 13973 8833 1 109.50000 418.400000
8832 13973 8834 1 109.50000 418.400000
8833 13973 8834 1 109.50000 418.400000
3020 13974 5070 1 109.50000 418.400000
3020 13974 5323 1 109.50000 418.400000
3020 13974 8835 1 109.50000 418.400000
5070 13974 5323 1 109.50000 418.400000
5070 13974 8835 1 109.50000 418.400000
5323 13974 8835 1 109.50000 418.400000
1606 13975 3257 1 109.50000 418.400000
1606 13975 4614 1 109.50000 418.400000
1606 13975 8836 1 109.50000 418.400000
3257 13975 4614 1 109.50000 418.400000
3257 13975 8836 1 109.50000 418.400000
4614 13975 8836 1 109.50000 418.400000
1094 13976 4980 1 109.50000 418.400000
1094 13976 5957 1 109.50000 418.400000
1094 13976 8837 1 109.50000 418.400000
4980 13976 5957 1 109.50000 418.400000
4980 13976 8837 1 109.50000 418.400000
5957 13976 8837 1 109.50000 418.400000
1254 13977 8838 1 109.50000 418.400000
1254 13977 8839 1 109.50000 418.400000
1254 13977 8840 1 109.50000 418.400000
8838 13977 8839 1 109.50000 418.400000
8838 13977 8840 1 109.50000 418.400000
8839 13977 8840 1 109.50000 418.400000
6131 13978 6636 1 109.50000 418.400000
6131 13978 8841 1 109.50000 418.400000
6131 13978 8842 1 109.50000 418.400000
6636 13978 8841 1 109.50000 418.400000
6636 13978 8842 1 109.50000 418.400000
8841 13978 8842 1 109.50000 418.400000
7892 13979 8094 1 109.50000 418.400000
7892 13979 8843 1 109.50000 418.400000
7892 13979 8844 1 109.50000 418.400000
8094 13979 8843 1 109.50000 418.400000
8094 13979 8844 1 109.50000 418.400000
8843 13979 8844 1 109.50000 418.400000
1482 13980 4548 1 109.50000 418.400000
1482 13980 8845 1 109.50000 418.400000
1482 13980 8846 1 109.50000 418.400000
4548 13980 8845 1 109.50000 418.400000
4548 13980 8846 1 109.50000 418.400000
8845 13980 8846 1 109.50000 418.400000
5208 13981 6167 1 109.50000 418.400000
5208 13981 6170 1 109.50000 418.400000
5208 13981 8847 1 109.50000 418.400000
6167 13981 6170 1 109.50000 418.400000
6167 13981 8847 1 109.50000 418.400000
6170 13981 8847 1 109.50000 418.400000
3756 13982 4192 1 109.50000 418.400000
3756 13982 5933 1 109.50000 418.400000
3756 13982 8849 1 109.50000 418.400000
4192 13982 5933 1 109.50000 418.400000
4192 13982 8849 1 109.50000 418.400000
5933 13982 8849 1 109.50000 418.400000
1768 13983 4525 1 109.50000 418.400000
1768 13983 5084 1 109.50000 418.400000
1768 13983 8850 1 109.50000 418.400000
4525 13983 5084 1 109.50000 418.400000
4525 13983 8850 1 109.50000 418.400000
5084 13983 8850 1 109.50000 418.400000
397 13984 8852 1 109.50000 418.400000
397 13984 8853 1 109.50000 418.400000
397 13984 8854 1 109.50000 418.400000
8852 13984 8853 1 109.50000 418.400000
8852 13984 8854 1 109.50000 418.400000
8853 13984 8854 1 109.50000 418.400000
4347 13985 5629 1 109.50000 418.400000
4347 13985 8856 1 109.50000 418.400000
4347 13985 8857 1 109.50000 418.400000
5629 13985 8856 1 109.50000 418.400000
5629 13985 8857 1 109.50000 418.400000
8856 13985 8857 1 109.50000 418.400000
2873 13986 8858 1 109.50000 418.400000
2873 13986 8859 1 109.50000 418.400000
2873 13986 8860 1 109.50000 418.400000
8858 13986 8859 1 109.50000 418.400000
8858 13986 8860 1 109.50000 418.400000
8859 13986 8860 1 109.50000 418.400000
252 13987 8861 1 109.50000 418.400000
252 13987 8862 1 109.50000 418.400000
252 13987 8863 1 109.50000 418.400000
8861 13987 8862 1 109.50000 418.400000
8861 13987 8863 1 109.50000 418.400000
8862 13987 8863 1 109.50000 418.400000
4894 13988 8864 1 109.50000 418.400000
4894 13988 8865 1 109.50000 418.400000
4894 13988 11223 1 109.50000 418.400000
8864 13988 8865 1 109.50000 418.400000
8864 13988 11223 1 109.50000 418.400000
8865 13988 11223 1 109.50000 418.400000
3112 13989 5160 1 109.50000 418.400000
3112 13989 6426 1 109.50000 418.400000
3112 13989 8868 1 109.50000 418.400000
5160 13989 6426 1 109.50000 418.400000
5160 13989 8868 1 109.50000 418.400000
6426 13989 8868 1 109.50000 418.400000
5491 13990 7325 1 109.50000 418.400000
5491 13990 8870 1 109.50000 418.400000
5491 13990 8871 1 109.50000 418.400000
7325 13990 8870 1 109.50000 418.400000
7325 13990 8871 1 109.50000 418.400000
8870 13990 8871 1 109.50000 418.400000
199 13991 3306 1 109.50000 418.400000
199 13991 6686 1 109.50000 418.400000
199 13991 7402 1 109.50000 418.400000
3306 13991 6686 1 109.50000 418.400000
3306 13991 7402 1 109.50000 418.400000
6686 13991 7402 1 109.50000 418.400000
3392 13992 3781 1 109.50000 418.400000
3392 13992 5083 1 109.50000 418.400000
3392 13992 8872 1 109.50000 418.400000
3781 13992 5083 1 109.50000 418.400000
3781 13992 8872 1 109.50000 418.400000
5083 13992 8872 1 109.50000 418.400000
8873 13993 8874 1 109.50000 418.400000
8873 13993 8875 1 109.50000 418.400000
8873 13993 11241 1 109.50000 418.400000
8874 13993 8875 1 109.50000 418.400000
8874 13993 11241 1 109.50000 418.400000
8875 13993 11241 1 109.50000 418.400000
830 13994 1868 1 109.50000 418.400000
830 13994 3991 1 109.50000 418.400000
830 13994 8880 1 109.50000 418.400000
1868 13994 3991 1 109.50000 418.400000
1868 13994 8880 1 109.50000 418.400000
3991 13994 8880 1 109.50000 418.400000
1096 13995 1610 1 109.50000 418.400000
1096 13995 8881 1 109.50000 418.400000
1096 13995 8882 1 109.50000 418.400000
1610 13995 8881 1 109.50000 418.400000
1610 13995 8882 1 109.50000 418.400000
8881 13995 8882 1 109.50000 418.400000
3251 13996 5609 1 109.50000 418.400000
3251 13996 6254 1 109.50000 418.400000
3251 13996 8883 1 109.50000 418.400000
5609 13996 6254 1 109.50000 418.400000
5609 13996 8883 1 109.50000 418.400000
6254 13996 8883 1 109.50000 418.400000
3646 13997 5053 1 109.50000 418.400000
3646 13997 8884 1 109.50000 418.400000
3646 13997 8885 1 109.50000 418.400000
5053 13997 8884 1 109.50000 418.400000
5053 13997 8885 1 109.50000 418.400000
8884 13997 8885 1 109.50000 418.400000
2807 13998 3049 1 109.50000 418.400000
2807 13998 8886 1 109.50000 418.400000
2807 13998 8887 1 109.50000 418.400000
3049 13998 8886 1 109.50000 418.400000
3049 13998 8887 1 109.50000 418.400000
8886 13998 8887 1 109.50000 418.400000
3506 13999 3966 1 109.50000 418.400000
3506 13999 4918 1 109.50000 418.400000
3506 13999 7059 1 109.50000 418.400000
3966 13999 4918 1 109.50000 418.400000
3966 13999 7059 1 109.50000 418.400000
4918 13999 7059 1 109.50000 418.400000
2534 14000 8888 1 109.50000 418.400000
2534 14000 8889 1 109.50000 418.400000
2534 14000 8890 1 109.50000 418.400000
8888 14000 8889 1 109.50000 418.400000
8888 14000 8890 1 109.50000 418.400000
8889 14000 8890 1 109.50000 418.400000
5154 14001 7487 1 109.50000 418.400000
5154 14001 8891 1 109.50000 418.400000
5154 14001 8892 1 109.50000 418.400000
7487 14001 8891 1 109.50000 418.400000
7487 14001 8892 1 109.50000 418.400000
8891 14001 8892 1 109.50000 418.400000
3723 14002 7214 1 109.50000 418.400000
3723 14002 7216 1 109.50000 418.400000
3723 14002 8893 1 109.50000 418.400000
7214 14002 7216 1 109.50000 418.400000
7214 14002 8893 1 109.50000 418.400000
7216 14002 8893 1 109.50000 418.400000
2693 14003 5978 1 109.50000 418.400000
2693 14003 6190 1 109.50000 418.400000
2693 14003 8895 1 109.50000 418.400000
5978 14003 6190 1 109.50000 418.400000
5978 14003 8895 1 109.50000 418.400000
6190 14003 8895 1 109.50000 418.400000
8075 14004 8896 1 109.50000 418.400000
8075 14004 8897 1 109.50000 418.400000
8075 14004 8898 1 109.50000 418.400000
8896 14004 8897 1 109.50000 418.400000
8896 14004 8898 1 109.50000 418.400000
8897 14004 8898 1 109.50000 418.400000
1817 14005 5732 1 109.50000 418.400000
1817 14005 8631 1 109.50000 418.400000
1817 14005 8899 1 109.50000 418.400000
5732 14005 8631 1 109.50000 418.400000
5732 14005 8899 1 109.50000 418.400000
8631 14005 8899 1 109.50000 418.400000
4960 14006 7053 1 109.50000 418.400000
4960 14006 8900 1 109.50000 418.400000
4960 14006 8901 1 109.50000 418.400000
7053 14006 8900 1 109.50000 418.400000
7053 14006 8901 1 109.50000 418.400000
8900 14006 8901 1 109.50000 418.400000
2360 14007 7922 1 109.50000 418.400000
2360 14007 8902 1 109.50000 418.400000
2360 14007 8903 1 109.50000 418.400000
7922 14007 8902 1 109.50000 418.400000
7922 14007 8903 1 109.50000 418.400000
8902 14007 8903 1 109.50000 418.400000
7653 14008 8904 1 109.50000 418.400000
7653 14008 8905 1 109.50000 418.400000
7653 14008 8906 1 109.50000 418.400000
8904 14008 8905 1 109.50000 418.400000
8904 14008 8906 1 109.50000 418.400000
8905 14008 8906 1 109.50000 418.400000
1753 14009 1759 1 109.50000 418.400000
1753 14009 7369 1 109.50000 418.400000
1753 14009 8907 1 109.50000 418.400000
1759 14009 7369 1 109.50000 418.400000
1759 14009 8907 1 109.50000 418.400000
7369 14009 8907 1 109.50000 418.400000
4256 14010 5014 1 109.50000 418.400000
4256 14010 5746 1 109.50000 418.400000
4256 14010 8285 1 109.50000 418.400000
5014 14010 5746 1 109.50000 418.400000
5014 14010 8285 1 109.50000 418.400000
5746 14010 8285 1 109.50000 418.400000
1339 14011 3998 1 109.50000 418.400000
1339 14011 8909 1 109.50000 418.400000
1339 14011 8910 1 109.50000 418.400000
3998 14011 8909 1 109.50000 418.400000
3998 14011 8910 1 109.50000 418.400000
8909 14011 8910 1 109.50000 418.400000
7576 14012 8334 1 109.50000 418.400000
7576 14012 8911 1 109.50000 418.400000
7576 14012 8912 1 109.50000 418.400000
8334 14012 8911 1 109.50000 418.400000
8334 14012 8912 1 109.50000 418.400000
8911 14012 8912 1 109.50000 418.400000
5971 14013 8755 1 109.50000 418.400000
5971 14013 8914 1 109.50000 418.400000
5971 14013 8915 1 109.50000 418.400000
8755 14013 8914 1 109.50000 418.400000
8755 14013 8915 1 109.50000 418.400000
8914 14013 8915 1 109.50000 418.400000
304 14014 3553 1 109.50000 418.400000
304 14014 5890 1 109.50000 418.400000
304 14014 8917 1 109.50000 418.400000
3553 14014 5890 1 109.50000 418.400000
3553 14014 8917 1 109.50000 418.400000
5890 14014 8917 1 109.50000 418.400000
4123 14015 8918 1 109.50000 418.400000
4123 14015 8919 1 109.50000 418.400000
4123 14015 8920 1 109.50000 418.400000
8918 14015 8919 1 109.50000 418.400000
8918 14015 8920 1 109.50000 418.400000
8919 14015 8920 1 109.50000 418.400000
4568 14016 6156 1 109.50000 418.400000
4568 14016 8921 1 109.50000 418.400000
4568 14016 8922 1 109.50000 418.400000
6156 14016 8921 1 109.50000 418.400000
6156 14016 8922 1 109.50000 418.400000
8921 14016 8922 1 109.50000 418.400000
1939 14017 2165 1 109.50000 418.400000
1939 14017 7449 1 109.50000 418.400000
1939 14017 11174 1 109.50000 418.400000
2165 14017 7449 1 109.50000 418.400000
2165 14017 11174 1 109.50000 418.400000
7449 14017 11174 1 109.50000 418.400000
6205 14018 8924 1 109.50000 418.400000
6205 14018 8925 1 109.50000 418.400000
6205 14018 8926 1 109.50000 418.400000
8924 14018 8925 1 109.50000 418.400000
8924 14018 8926 1 109.50000 418.400000
8925 14018 8926 1 109.50000 418.400000
788 14019 3608 1 109.50000 418.400000
788 14019 4974 1 109.50000 418.400000
788 14019 8929 1 109.50000 418.400000
3608 14019 4974 1 109.50000 418.400000
3608 14019 8929 1 109.50000 418.400000
4974 14019 8929 1 109.50000 418.400000
8930 14020 8931 1 109.50000 418.400000
8930 14020 8932 1 109.50000 418.400000
8930 14020 8933 1 109.50000 418.400000
8931 14020 8932 1 109.50000 418.400000
8931 14020 8933 1 109.50000 418.400000
8932 14020 8933 1 109.50000 418.400000
1253 14021 6609 1 109.50000 418.400000
1253 14021 8934 1 109.50000 418.400000
1253 14021 8935 1 109.50000 418.400000
6609 14021 8934 1 109.50000 418.400000
6609 14021 8935 1 109.50000 418.400000
8934 14021 8935 1 109.50000 418.400000
1164 14022 5514 1 109.50000 418.400000
1164 14022 7958 1 109.50000 418.400000
1164 14022 8936 1 109.50000 418.400000
5514 14022 7958 1 109.50000 418.400000
5514 14022 8936 1 109.50000 418.400000
7958 14022 8936 1 109.50000 418.400000
3476 14023 5828 1 109.50000 418.400000
3476 14023 8937 1 109.50000 418.400000
3476 14023 8938 1 109.50000 418.400000
5828 14023 8937 1 109.50000 418.400000
5828 14023 8938 1 109.50000 418.400000
8937 14023 8938 1 109.50000 418.400000
2579 14024 7057 1 109.50000 418.400000
2579 14024 7903 1 109.50000 418.400000
2579 14024 8939 1 109.50000 418.400000
7057 14024 7903 1 109.50000 418.400000
7057 14024 8939 1 109.50000 418.400000
7903 14024 8939 1 109.50000 418.400000
2705 14025 7558 1 109.50000 418.400000
2705 14025 7584 1 109.50000 418.400000
2705 14025 8940 1 109.50000 418.400000
7558 14025 7584 1 109.50000 418.400000
7558 14025 8940 1 109.50000 418.400000
7584 14025 8940 1 109.50000 418.400000
2954 14026 5970 1 109.50000 418.400000
2954 14026 5973 1 109.50000 418.400000
2954 14026 8941 1 109.50000 418.400000
5970 14026 5973 1 109.50000 418.400000
5970 14026 8941 1 109.50000 418.400000
5973 14026 8941 1 109.50000 418.400000
8943 14027 8944 1 109.50000 418.400000
8943 14027 8945 1 109.50000 418.400000
8943 14027 8946 1 109.50000 418.400000
8944 14027 8945 1 109.50000 418.400000
8944 14027 8946 1 109.50000 418.400000
8945 14027 8946 1 109.50000 418.400000
1695 14028 2785 1 109.50000 418.400000
1695 14028 8947 1 109.50000 418.400000
1695 14028 8948 1 109.50000 418.400000
2785 14028 8947 1 109.50000 418.400000
2785 14028 8948 1 109.50000 418.400000
8947 14028 8948 1 109.50000 418.400000
8949 14029 8950 1 109.50000 418.400000
8949 14029 8951 1 109.50000 418.400000
8949 14029 8952 1 109.50000 418.400000
8950 14029 8951 1 109.50000 418.400000
8950 14029 8952 1 109.50000 418.400000
8951 14029 8952 1 109.50000 418.400000
1740 14030 2379 1 109.50000 418.400000
1740 14030 4546 1 109.50000 418.400000
1740 14030 8953 1 109.50000 418.400000
2379 14030 4546 1 109.50000 418.400000
2379 14030 8953 1 109.50000 418.400000
4546 14030 8953 1 109.50000 418.400000
2876 14031 8954 1 109.50000 418.400000
2876 14031 8955 1 109.50000 418.400000
2876 14031 8956 1 109.50000 418.400000
8954 14031 8955 1 109.50000 418.400000
8954 14031 8956 1 109.50000 418.400000
8955 14031 8956 1 109.50000 418.400000
7989 14032 8957 1 109.50000 418.400000
7989 14032 8958 1 109.50000 418.400000
7989 14032 8959 1 109.50000 418.400000
8957 14032 8958 1 109.50000 418.400000
8957 14032 8959 1 109.50000 418.400000
8958 14032 8959 1 109.50000 418.400000
2650 14033 5326 1 109.50000 418.400000
2650 14033 5363 1 109.50000 418.400000
2650 14033 5382 1 109.50000 418.400000
5326 14033 5363 1 109.50000 418.400000
5326 14033 5382 1 109.50000 418.400000
5363 14033 5382 1 109.50000 418.400000
424 14034 638 1 109.50000 418.400000
424 14034 5150 1 109.50000 418.400000
424 14034 8960 1 109.50000 418.400000
638 14034 5150 1 109.50000 418.400000
638 14034 8960 1 109.50000 418.400000
5150 14034 8960 1 109.50000 418.400000
1465 14035 5851 1 109.50000 418.400000
1465 14035 8248 1 109.50000 418.400000
1465 14035 8963 1 109.50000 418.400000
5851 14035 8248 1 109.50000 418.400000
5851 14035 8963 1 109.50000 418.400000
8248 14035 8963 1 109.50000 418.400000
8129 14036 8964 1 109.50000 418.400000
8129 14036 8965 1 109.50000 418.400000
8129 14036 8966 1 109.50000 418.400000
8964 14036 8965 1 109.50000 418.400000
8964 14036 8966 1 109.50000 418.400000
8965 14036 8966 1 109.50000 418.400000
1729 14037 3174 1 109.50000 418.400000
1729 14037 8960 1 109.50000 418.400000
1729 14037 8967 1 109.50000 418.400000
3174 14037 8960 1 109.50000 418.400000
3174 14037 8967 1 109.50000 418.400000
8960 14037 8967 1 109.50000 418.400000
7224 14038 7225 1 109.50000 418.400000
7224 14038 8968 1 109.50000 418.400000
7224 14038 8969 1 109.50000 418.400000
7225 14038 8968 1 109.50000 418.400000
7225 14038 8969 1 109.50000 418.400000
8968 14038 8969 1 109.50000 418.400000
1518 14039 3058 1 109.50000 418.400000
1518 14039 4201 1 109.50000 418.400000
1518 14039 7266 1 109.50000 418.400000
3058 14039 4201 1 109.50000 418.400000
3058 14039 7266 1 109.50000 418.400000
4201 14039 7266 1 109.50000 418.400000
4732 14040 8971 1 109.50000 418.400000
4732 14040 8972 1 109.50000 418.400000
4732 14040 8973 1 109.50000 418.400000
8971 14040 8972 1 109.50000 418.400000
8971 14040 8973 1 109.50000 418.400000
8972 14040 8973 1 109.50000 418.400000
2800 14041 2802 1 109.50000 418.400000
2800 14041 8977 1 109.50000 418.400000
2800 14041 8978 1 109.50000 418.400000
2802 14041 8977 1 109.50000 418.400000
2802 14041 8978 1 109.50000 418.400000
8977 14041 8978 1 109.50000 418.400000
8385 14042 8979 1 109.50000 418.400000
8385 14042 8980 1 109.50000 418.400000
8385 14042 8981 1 109.50000 418.400000
8979 14042 8980 1 109.50000 418.400000
8979 14042 8981 1 109.50000 418.400000
8980 14042 8981 1 109.50000 418.400000
5624 14043 5936 1 109.50000 418.400000
5624 14043 8982 1 109.50000 418.400000
5624 14043 8983 1 109.50000 418.400000
5936 14043 8982 1 109.50000 418.400000
5936 14043 8983 1 109.50000 418.400000
8982 14043 8983 1 109.50000 418.400000
2666 14044 5800 1 109.50000 418.400000
2666 14044 8984 1 109.50000 418.400000
2666 14044 8985 1 109.50000 418.400000
5800 14044 8984 1 109.50000 418.400000
5800 14044 8985 1 109.50000 418.400000
8984 14044 8985 1 109.50000 418.400000
1200 14045 1304 1 109.50000 418.400000
1200 14045 1305 1 109.50000 418.400000
1200 14045 3190 1 109.50000 418.400000
1304 14045 1305 1 109.50000 418.400000
1304 14045 3190 1 109.50000 418.400000
1305 14045 3190 1 109.50000 418.400000
8016 14046 8987 1 109.50000 418.400000
8016 14046 8988 1 109.50000 418.400000
8016 14046 8989 1 109.50000 418.400000
8987 14046 8988 1 109.50000 418.400000
8987 14046 8989 1 109.50000 418.400000
8988 14046 8989 1 109.50000 418.400000
3772 14047 6488 1 109.50000 418.400000
3772 14047 8990 1 109.50000 418.400000
3772 14047 11225 1 109.50000 418.400000
6488 14047 8990 1 109.50000 418.400000
6488 14047 11225 1 109.50000 418.400000
8990 14047 11225 1 109.50000 418.400000
5863 14048 6075 1 109.50000 418.400000
5863 14048 7049 1 109.50000 418.400000
5863 14048 7504 1 109.50000 418.400000
6075 14048 7049 1 109.50000 418.400000
6075 14048 7504 1 109.50000 418.400000
7049 14048 7504 1 109.50000 418.400000
849 14049 4266 1 109.50000 418.400000
849 14049 8991 1 109.50000 418.400000
849 14049 8992 1 109.50000 418.400000
4266 14049 8991 1 109.50000 418.400000
4266 14049 8992 1 109.50000 418.400000
8991 14049 8992 1 109.50000 418.400000
702 14050 8527 1 109.50000 418.400000
702 14050 8993 1 109.50000 418.400000
702 14050 8994 1 109.50000 418.400000
8527 14050 8993 1 109.50000 418.400000
8527 14050 8994 1 109.50000 418.400000
8993 14050 8994 1 109.50000 418.400000
1098 14051 6160 1 109.50000 418.400000
1098 14051 8549 1 109.50000 418.400000
1098 14051 8995 1 109.50000 418.400000
6160 14051 8549 1 109.50000 418.400000
6160 14051 8995 1 109.50000 418.400000
8549 14051 8995 1 109.50000 418.400000
6256 14052 6258 1 109.50000 418.400000
6256 14052 6884 1 109.50000 418.400000
6256 14052 8271 1 109.50000 418.400000
6258 14052 6884 1 109.50000 418.400000
6258 14052 8271 1 109.50000 418.400000
6884 14052 8271 1 109.50000 418.400000
6973 14053 7356 1 109.50000 418.400000
6973 14053 8996 1 109.50000 418.400000
6973 14053 8997 1 109.50000 418.400000
7356 14053 8996 1 109.50000 418.400000
7356 14053 8997 1 109.50000 418.400000
8996 14053 8997 1 109.50000 418.400000
6074 14054 7503 1 109.50000 418.400000
6074 14054 8282 1 109.50000 418.400000
6074 14054 8283 1 109.50000 418.400000
7503 14054 8282 1 109.50000 418.400000
7503 14054 8283 1 109.50000 418.400000
8282 14054 8283 1 109.50000 418.400000
5926 14055 8196 1 109.50000 418.400000
5926 14055 8999 1 109.50000 418.400000
5926 14055 9000 1 109.50000 418.400000
8196 14055 8999 1 109.50000 418.400000
8196 14055 9000 1 109.50000 418.400000
8999 14055 9000 1 109.50000 418.400000
5555 14056 9002 1 109.50000 418.400000
5555 14056 9003 1 109.50000 418.400000
5555 14056 9004 1 109.50000 418.400000
9002 14056 9003 1 109.50000 418.400000
9002 14056 9004 1 109.50000 418.400000
9003 14056 9004 1 109.50000 418.400000
1347 14057 9006 1 109.50000 418.400000
1347 14057 9007 1 109.50000 418.400000
1347 14057 9008 1 109.50000 418.400000
9006 14057 9007 1 109.50000 418.400000
9006 14057 9008 1 109.50000 418.400000
9007 14057 9008 1 109.50000 418.400000
2132 14058 6633 1 109.50000 418.400000
2132 14058 8827 1 109.50000 418.400000
2132 14058 9009 1 109.50000 418.400000
6633 14058 8827 1 109.50000 418.400000
6633 14058 9009 1 109.50000 418.400000
8827 14058 9009 1 109.50000 418.400000
4356 14059 6106 1 109.50000 418.400000
4356 14059 9013 1 109.50000 418.400000
4356 14059 9014 1 109.50000 418.400000
6106 14059 9013 1 109.50000 418.400000
6106 14059 9014 1 109.50000 418.400000
9013 14059 9014 1 109.50000 418.400000
8252 14060 9015 1 109.50000 418.400000
8252 14060 9017 1 109.50000 418.400000
8252 14060 10315 1 109.50000 418.400000
9015 14060 9017 1 109.50000 418.400000
9015 14060 10315 1 109.50000 418.400000
9017 14060 10315 1 109.50000 418.400000
549 14061 3741 1 109.50000 418.400000
549 14061 7803 1 109.50000 418.400000
549 14061 9018 1 109.50000 418.400000
3741 14061 7803 1 109.50000 418.400000
3741 14061 9018 1 109.50000 418.400000
7803 14061 9018 1 109.50000 418.400000
2438 14062 3891 1 109.50000 418.400000
2438 14062 6184 1 109.50000 418.400000
2438 14062 9019 1 109.50000 418.400000
3891 14062 6184 1 109.50000 418.400000
3891 14062 9019 1 109.50000 418.400000
6184 14062 9019 1 109.50000 418.400000
3902 14063 4470 1 109.50000 418.400000
3902 14063 9020 1 109.50000 418.400000
3902 14063 9021 1 109.50000 418.400000
4470 14063 9020 1 109.50000 418.400000
4470 14063 9021 1 109.50000 418.400000
9020 14063 9021 1 109.50000 418.400000
5559 14064 8071 1 109.50000 418.400000
5559 14064 9022 1 109.50000 418.400000
5559 14064 9023 1 109.50000 418.400000
8071 14064 9022 1 109.50000 418.400000
8071 14064 9023 1 109.50000 418.400000
9022 14064 9023 1 109.50000 418.400000
5344 14065 9024 1 109.50000 418.400000
5344 14065 9025 1 109.50000 418.400000
5344 14065 11195 1 109.50000 418.400000
9024 14065 9025 1 109.50000 418.400000
9024 14065 11195 1 109.50000 418.400000
9025 14065 11195 1 109.50000 418.400000
7936 14066 9026 1 109.50000 418.400000
7936 14066 9027 1 109.50000 418.400000
7936 14066 9028 1 109.50000 418.400000
9026 14066 9027 1 109.50000 418.400000
9026 14066 9028 1 109.50000 418.400000
9027 14066 9028 1 109.50000 418.400000
7045 14067 8941 1 109.50000 418.400000
7045 14067 9029 1 109.50000 418.400000
7045 14067 9030 1 109.50000 418.400000
8941 14067 9029 1 109.50000 418.400000
8941 14067 9030 1 109.50000 418.400000
9029 14067 9030 1 109.50000 418.400000
3544 14068 9031 1 109.50000 418.400000
3544 14068 9032 1 109.50000 418.400000
3544 14068 9033 1 109.50000 418.400000
9031 14068 9032 1 109.50000 418.400000
9031 14068 9033 1 109.50000 418.400000
9032 14068 9033 1 109.50000 418.400000
1328 14069 4875 1 109.50000 418.400000
1328 14069 6236 1 109.50000 418.400000
1328 14069 9034 1 109.50000 418.400000
4875 14069 6236 1 109.50000 418.400000
4875 14069 9034 1 109.50000 418.400000
6236 14069 9034 1 109.50000 418.400000
4535 14070 5828 1 109.50000 418.400000
4535 14070 5829 1 109.50000 418.400000
4535 14070 6960 1 109.50000 418.400000
5828 14070 5829 1 109.50000 418.400000
5828 14070 6960 1 109.50000 418.400000
5829 14070 6960 1 109.50000 418.400000
1466 14071 3017 1 109.50000 418.400000
1466 14071 9036 1 109.50000 418.400000
1466 14071 9037 1 109.50000 418.400000
3017 14071 9036 1 109.50000 418.400000
3017 14071 9037 1 109.50000 418.400000
9036 14071 9037 1 109.50000 418.400000
2703 14072 4770 1 109.50000 418.400000
2703 14072 9038 1 109.50000 418.400000
2703 14072 9039 1 109.50000 418.400000
4770 14072 9038 1 109.50000 418.400000
4770 14072 9039 1 109.50000 418.400000
9038 14072 9039 1 109.50000 418.400000
6485 14073 9040 1 109.50000 418.400000
6485 14073 9042 1 109.50000 418.400000
6485 14073 9043 1 109.50000 418.400000
9040 14073 9042 1 109.50000 418.400000
9040 14073 9043 1 109.50000 418.400000
9042 14073 9043 1 109.50000 418.400000
2351 14074 3317 1 109.50000 418.400000
2351 14074 5078 1 109.50000 418.400000
2351 14074 9044 1 109.50000 418.400000
3317 14074 5078 1 109.50000 418.400000
3317 14074 9044 1 109.50000 418.400000
5078 14074 9044 1 109.50000 418.400000
117 14075 6388 1 109.50000 418.400000
117 14075 8806 1 109.50000 418.400000
117 14075 9045 1 109.50000 418.400000
6388 14075 8806 1 109.50000 418.400000
6388 14075 9045 1 109.50000 418.400000
8806 14075 9045 1 109.50000 418.400000
7928 14076 8360 1 109.50000 418.400000
7928 14076 9046 1 109.50000 418.400000
7928 14076 9047 1 109.50000 418.400000
8360 14076 9046 1 109.50000 418.400000
8360 14076 9047 1 109.50000 418.400000
9046 14076 9047 1 109.50000 418.400000
2288 14077 5838 1 109.50000 418.400000
2288 14077 9049 1 109.50000 418.400000
2288 14077 9050 1 109.50000 418.400000
5838 14077 9049 1 109.50000 418.400000
5838 14077 9050 1 109.50000 418.400000
9049 14077 9050 1 109.50000 418.400000
6365 14078 8381 1 109.50000 418.400000
6365 14078 9051 1 109.50000 418.400000
6365 14078 9052 1 109.50000 418.400000
8381 14078 9051 1 109.50000 418.400000
8381 14078 9052 1 109.50000 418.400000
9051 14078 9052 1 109.50000 418.400000
2811 14079 5037 1 109.50000 418.400000
2811 14079 7070 1 109.50000 418.400000
2811 14079 9053 1 109.50000 418.400000
5037 14079 7070 1 109.50000 418.400000
5037 14079 9053 1 109.50000 418.400000
7070 14079 9053 1 109.50000 418.400000
722 14080 724 1 109.50000 418.400000
722 14080 2383 1 109.50000 418.400000
722 14080 4214 1 109.50000 418.400000
724 14080 2383 1 109.50000 418.400000
724 14080 4214 1 109.50000 418.400000
2383 14080 4214 1 109.50000 418.400000
5602 14081 7375 1 109.50000 418.400000
5602 14081 8530 1 109.50000 418.400000
5602 14081 9056 1 109.50000 418.400000
7375 14081 8530 1 109.50000 418.400000
7375 14081 9056 1 109.50000 418.400000
8530 14081 9056 1 109.50000 418.400000
6793 14082 9057 1 109.50000 418.400000
6793 14082 9058 1 109.50000 418.400000
6793 14082 9059 1 109.50000 418.400000
9057 14082 9058 1 109.50000 418.400000
9057 14082 9059 1 109.50000 418.400000
9058 14082 9059 1 109.50000 418.400000
7061 14083 7063 1 109.50000 418.400000
7061 14083 8913 1 109.50000 418.400000
7061 14083 9060 1 109.50000 418.400000
7063 14083 8913 1 109.50000 418.400000
7063 14083 9060 1 109.50000 418.400000
8913 14083 9060 1 109.50000 418.400000
6875 14084 9062 1 109.50000 418.400000
6875 14084 9063 1 109.50000 418.400000
6875 14084 9064 1 109.50000 418.400000
9062 14084 9063 1 109.50000 418.400000
9062 14084 9064 1 109.50000 418.400000
9063 14084 9064 1 109.50000 418.400000
1177 14085 2276 1 109.50000 418.400000
1177 14085 6421 1 109.50000 418.400000
1177 14085 9065 1 109.50000 418.400000
2276 14085 6421 1 109.50000 418.400000
2276 14085 9065 1 109.50000 418.400000
6421 14085 9065 1 109.50000 418.400000
1182 14086 2335 1 109.50000 418.400000
1182 14086 6774 1 109.50000 418.400000
1182 14086 9066 1 109.50000 418.400000
2335 14086 6774 1 109.50000 418.400000
2335 14086 9066 1 109.50000 418.400000
6774 14086 9066 1 109.50000 418.400000
3968 14087 6918 1 109.50000 418.400000
3968 14087 9068 1 109.50000 418.400000
3968 14087 10459 1 109.50000 418.400000
6918 14087 9068 1 109.50000 418.400000
6918 14087 10459 1 109.50000 418.400000
9068 14087 10459 1 109.50000 418.400000
4484 14088 4989 1 109.50000 418.400000
4484 14088 9070 1 109.50000 418.400000
4484 14088 9071 1 109.50000 418.400000
4989 14088 9070 1 109.50000 418.400000
4989 14088 9071 1 109.50000 418.400000
9070 14088 9071 1 109.50000 418.400000
4760 14089 4761 1 109.50000 418.400000
4760 14089 8148 1 109.50000 418.400000
4760 14089 9072 1 109.50000 418.400000
4761 14089 8148 1 109.50000 418.400000
4761 14089 9072 1 109.50000 418.400000
8148 14089 9072 1 109.50000 418.400000
4672 14090 5901 1 109.50000 418.400000
4672 14090 9074 1 109.50000 418.400000
4672 14090 9075 1 109.50000 418.400000
5901 14090 9074 1 109.50000 418.400000
5901 14090 9075 1 109.50000 418.400000
9074 14090 9075 1 109.50000 418.400000
9076 14091 9077 1 109.50000 418.400000
9076 14091 9078 1 109.50000 418.400000
9076 14091 9079 1 109.50000 418.400000
9077 14091 9078 1 109.50000 418.400000
9077 14091 9079 1 109.50000 418.400000
9078 14091 9079 1 109.50000 418.400000
4904 14092 9080 1 109.50000 418.400000
4904 14092 9081 1 109.50000 418.400000
4904 14092 9083 1 109.50000 418.400000
9080 14092 9081 1 109.50000 418.400000
9080 14092 9083 1 109.50000 418.400000
9081 14092 9083 1 109.50000 418.400000
5795 14093 7269 1 109.50000 418.400000
5795 14093 8397 1 109.50000 418.400000
5795 14093 9084 1 109.50000 418.400000
7269 14093 8397 1 109.50000 418.400000
7269 14093 9084 1 109.50000 418.400000
8397 14093 9084 1 109.50000 418.400000
3734 14094 5329 1 109.50000 418.400000
3734 14094 6336 1 109.50000 418.400000
3734 14094 6337 1 109.50000 418.400000
5329 14094 6336 1 109.50000 418.400000
5329 14094 6337 1 109.50000 418.400000
6336 14094 6337 1 109.50000 418.400000
6165 14095 6620 1 109.50000 418.400000
6165 14095 6622 1 109.50000 418.400000
6165 14095 9086 1 109.50000 418.400000
6620 14095 6622 1 109.50000 418.400000
6620 14095 9086 1 109.50000 418.400000
6622 14095 9086 1 109.50000 418.400000
453 14096 1519 1 109.50000 418.400000
453 14096 7381 1 109.50000 418.400000
453 14096 9087 1 109.50000 418.400000
1519 14096 7381 1 109.50000 418.400000
1519 14096 9087 1 109.50000 418.400000
7381 14096 9087 1 109.50000 418.400000
435 14097 9091 1 109.50000 418.400000
435 14097 9092 1 109.50000 418.400000
435 14097 9093 1 109.50000 418.400000
9091 14097 9092 1 109.50000 418.400000
9091 14097 9093 1 109.50000 418.400000
9092 14097 9093 1 109.50000 418.400000
5546 14098 9093 1 109.50000 418.400000
5546 14098 9094 1 109.50000 418.400000
5546 14098 9095 1 109.50000 418.400000
9093 14098 9094 1 109.50000 418.400000
9093 14098 9095 1 109.50000 418.400000
9094 14098 9095 1 109.50000 418.400000
6499 14099 9081 1 109.50000 418.400000
6499 14099 9096 1 109.50000 418.400000
6499 14099 9097 1 109.50000 418.400000
9081 14099 9096 1 109.50000 418.400000
9081 14099 9097 1 109.50000 418.400000
9096 14099 9097 1 109.50000 418.400000
3605 14100 8424 1 109.50000 418.400000
3605 14100 9099 1 109.50000 418.400000
3605 14100 9100 1 109.50000 418.400000
8424 14100 9099 1 109.50000 418.400000
8424 14100 9100 1 109.50000 418.400000
9099 14100 9100 1 109.50000 418.400000
5564 14101 6312 1 109.50000 418.400000
5564 14101 9101 1 109.50000 418.400000
5564 14101 9102 1 109.50000 418.400000
6312 14101 9101 1 109.50000 418.400000
6312 14101 9102 1 109.50000 418.400000
9101 14101 9102 1 109.50000 418.400000
7202 14102 9105 1 109.50000 418.400000
7202 14102 9106 1 109.50000 418.400000
7202 14102 9107 1 109.50000 418.400000
9105 14102 9106 1 109.50000 418.400000
9105 14102 9107 1 109.50000 418.400000
9106 14102 9107 1 109.50000 418.400000
4428 14103 7498 1 109.50000 418.400000
4428 14103 7518 1 109.50000 418.400000
4428 14103 9108 1 109.50000 418.400000
7498 14103 7518 1 109.50000 418.400000
7498 14103 9108 1 109.50000 418.400000
7518 14103 9108 1 109.50000 418.400000
6708 14104 8322 1 109.50000 418.400000
6708 14104 9060 1 109.50000 418.400000
6708 14104 9109 1 109.50000 418.400000
8322 14104 9060 1 109.50000 418.400000
8322 14104 9109 1 109.50000 418.400000
9060 14104 9109 1 109.50000 418.400000
6174 14105 7712 1 109.50000 418.400000
6174 14105 9110 1 109.50000 418.400000
6174 14105 9112 1 109.50000 418.400000
7712 14105 9110 1 109.50000 418.400000
7712 14105 9112 1 109.50000 418.400000
9110 14105 9112 1 109.50000 418.400000
5942 14106 6487 1 109.50000 418.400000
5942 14106 6488 1 109.50000 418.400000
5942 14106 9113 1 109.50000 418.400000
6487 14106 6488 1 109.50000 418.400000
6487 14106 9113 1 109.50000 418.400000
6488 14106 9113 1 109.50000 418.400000
4219 14107 9114 1 109.50000 418.400000
4219 14107 9115 1 109.50000 418.400000
4219 14107 9116 1 109.50000 418.400000
9114 14107 9115 1 109.50000 418.400000
9114 14107 9116 1 109.50000 418.400000
9115 14107 9116 1 109.50000 418.400000
7786 14108 9117 1 109.50000 418.400000
7786 14108 9118 1 109.50000 418.400000
7786 14108 9120 1 109.50000 418.400000
9117 14108 9118 1 109.50000 418.400000
9117 14108 9120 1 109.50000 418.400000
9118 14108 9120 1 109.50000 418.400000
7724 14109 8033 1 109.50000 418.400000
7724 14109 9121 1 109.50000 418.400000
7724 14109 9122 1 109.50000 418.400000
8033 14109 9121 1 109.50000 418.400000
8033 14109 9122 1 109.50000 418.400000
9121 14109 9122 1 109.50000 418.400000
5042 14110 9123 1 109.50000 418.400000
5042 14110 9124 1 109.50000 418.400000
5042 14110 9125 1 109.50000 418.400000
9123 14110 9124 1 109.50000 418.400000
9123 14110 9125 1 109.50000 418.400000
9124 14110 9125 1 109.50000 418.400000
3205 14111 9107 1 109.50000 418.400000
3205 14111 9127 1 109.50000 418.400000
3205 14111 9128 1 109.50000 418.400000
9107 14111 9127 1 109.50000 418.400000
9107 14111 9128 1 109.50000 418.400000
9127 14111 9128 1 109.50000 418.400000
1192 14112 5619 1 109.50000 418.400000
1192 14112 5625 1 109.50000 418.400000
1192 14112 7699 1 109.50000 418.400000
5619 14112 5625 1 109.50000 418.400000
5619 14112 7699 1 109.50000 418.400000
5625 14112 7699 1 109.50000 418.400000
1378 14113 4375 1 109.50000 418.400000
1378 14113 8737 1 109.50000 418.400000
1378 14113 9129 1 109.50000 418.400000
4375 14113 8737 1 109.50000 418.400000
4375 14113 9129 1 109.50000 418.400000
8737 14113 9129 1 109.50000 418.400000
9130 14114 9131 1 109.50000 418.400000
9130 14114 9132 1 109.50000 418.400000
9130 14114 9133 1 109.50000 418.400000
9131 14114 9132 1 109.50000 418.400000
9131 14114 9133 1 109.50000 418.400000
9132 14114 9133 1 109.50000 418.400000
1621 14115 2525 1 109.50000 418.400000
1621 14115 7275 1 109.50000 418.400000
1621 14115 8699 1 109.50000 418.400000
2525 14115 7275 1 109.50000 418.400000
2525 14115 8699 1 109.50000 418.400000
7275 14115 8699 1 109.50000 418.400000
3326 14116 3328 1 109.50000 418.400000
3326 14116 4686 1 109.50000 418.400000
3326 14116 4893 1 109.50000 418.400000
3328 14116 4686 1 109.50000 418.400000
3328 14116 4893 1 109.50000 418.400000
4686 14116 4893 1 109.50000 418.400000
1334 14117 3691 1 109.50000 418.400000
1334 14117 9135 1 109.50000 418.400000
1334 14117 9136 1 109.50000 418.400000
3691 14117 9135 1 109.50000 418.400000
3691 14117 9136 1 109.50000 418.400000
9135 14117 9136 1 109.50000 418.400000
1445 14118 7010 1 109.50000 418.400000
1445 14118 9137 1 109.50000 418.400000
1445 14118 9138 1 109.50000 418.400000
7010 14118 9137 1 109.50000 418.400000
7010 14118 9138 1 109.50000 418.400000
9137 14118 9138 1 109.50000 418.400000
2827 14119 5097 1 109.50000 418.400000
2827 14119 7206 1 109.50000 418.400000
2827 14119 9141 1 109.50000 418.400000
5097 14119 7206 1 109.50000 418.400000
5097 14119 9141 1 109.50000 418.400000
7206 14119 9141 1 109.50000 418.400000
2076 14120 8157 1 109.50000 418.400000
2076 14120 9019 1 109.50000 418.400000
2076 14120 9142 1 109.50000 418.400000
8157 14120 9019 1 109.50000 418.400000
8157 14120 9142 1 109.50000 418.400000
9019 14120 9142 1 109.50000 418.400000
367 14121 7898 1 109.50000 418.400000
367 14121 8366 1 109.50000 418.400000
367 14121 9145 1 109.50000 418.400000
7898 14121 8366 1 109.50000 418.400000
7898 14121 9145 1 109.50000 418.400000
8366 14121 9145 1 109.50000 418.400000
2881 14122 3960 1 109.50000 418.400000
2881 14122 7867 1 109.50000 418.400000
2881 14122 7993 1 109.50000 418.400000
3960 14122 7867 1 109.50000 418.400000
3960 14122 7993 1 109.50000 418.400000
7867 14122 7993 1 109.50000 418.400000
2489 14123 5655 1 109.50000 418.400000
2489 14123 8753 1 109.50000 418.400000
2489 14123 9148 1 109.50000 418.400000
5655 14123 8753 1 109.50000 418.400000
5655 14123 9148 1 109.50000 418.400000
8753 14123 9148 1 109.50000 418.400000
5605 14124 9149 1 109.50000 418.400000
5605 14124 9150 1 109.50000 418.400000
5605 14124 9151 1 109.50000 418.400000
9149 14124 9150 1 109.50000 418.400000
9149 14124 9151 1 109.50000 418.400000
9150 14124 9151 1 109.50000 418.400000
7420 14125 9152 1 109.50000 418.400000
7420 14125 9153 1 109.50000 418.400000
7420 14125 9154 1 109.50000 418.400000
9152 14125 9153 1 109.50000 418.400000
9152 14125 9154 1 109.50000 418.400000
9153 14125 9154 1 109.50000 418.400000
4625 14126 5562 1 109.50000 418.400000
4625 14126 7334 1 109.50000 418.400000
4625 14126 9155 1 109.50000 418.400000
5562 14126 7334 1 109.50000 418.400000
5562 14126 9155 1 109.50000 418.400000
7334 14126 9155 1 109.50000 418.400000
1505 14127 3583 1 109.50000 418.400000
1505 14127 9156 1 109.50000 418.400000
1505 14127 9157 1 109.50000 418.400000
3583 14127 9156 1 109.50000 418.400000
3583 14127 9157 1 109.50000 418.400000
9156 14127 9157 1 109.50000 418.400000
2505 14128 2507 1 109.50000 418.400000
2505 14128 5438 1 109.50000 418.400000
2505 14128 9158 1 109.50000 418.400000
2507 14128 5438 1 109.50000 418.400000
2507 14128 9158 1 109.50000 418.400000
5438 14128 9158 1 109.50000 418.400000
7748 14129 9160 1 109.50000 418.400000
7748 14129 9161 1 109.50000 418.400000
7748 14129 9162 1 109.50000 418.400000
9160 14129 9161 1 109.50000 418.400000
9160 14129 9162 1 109.50000 418.400000
9161 14129 9162 1 109.50000 418.400000
3431 14130 9163 1 109.50000 418.400000
3431 14130 9164 1 109.50000 418.400000
3431 14130 9165 1 109.50000 418.400000
9163 14130 9164 1 109.50000 418.400000
9163 14130 9165 1 109.50000 418.400000
9164 14130 9165 1 109.50000 418.400000
8258 14131 8871 1 109.50000 418.400000
8258 14131 9166 1 109.50000 418.400000
8258 14131 9167 1 109.50000 418.400000
8871 14131 9166 1 109.50000 418.400000
8871 14131 9167 1 109.50000 418.400000
9166 14131 9167 1 109.50000 418.400000
6073 14132 6173 1 109.50000 418.400000
6073 14132 9168 1 109.50000 418.400000
6073 14132 11175 1 109.50000 418.400000
6173 14132 9168 1 109.50000 418.400000
6173 14132 11175 1 109.50000 418.400000
9168 14132 11175 1 109.50000 418.400000
2163 14133 4480 1 109.50000 418.400000
2163 14133 5434 1 109.50000 418.400000
2163 14133 9110 1 109.50000 418.400000
4480 14133 5434 1 109.50000 418.400000
4480 14133 9110 1 109.50000 418.400000
5434 14133 9110 1 109.50000 418.400000
351 14134 1775 1 109.50000 418.400000
351 14134 2869 1 109.50000 418.400000
351 14134 9169 1 109.50000 418.400000
1775 14134 2869 1 109.50000 418.400000
1775 14134 9169 1 109.50000 418.400000
2869 14134 9169 1 109.50000 418.400000
1058 14135 6661 1 109.50000 418.400000
1058 14135 7014 1 109.50000 418.400000
1058 14135 9084 1 109.50000 418.400000
6661 14135 7014 1 109.50000 418.400000
6661 14135 9084 1 109.50000 418.400000
7014 14135 9084 1 109.50000 418.400000
3911 14136 8395 1 109.50000 418.400000
3911 14136 9170 1 109.50000 418.400000
3911 14136 9171 1 109.50000 418.400000
8395 14136 9170 1 109.50000 418.400000
8395 14136 9171 1 109.50000 418.400000
9170 14136 9171 1 109.50000 418.400000
786 14137 2180 1 109.50000 418.400000
786 14137 3607 1 109.50000 418.400000
786 14137 9173 1 109.50000 418.400000
2180 14137 3607 1 109.50000 418.400000
2180 14137 9173 1 109.50000 418.400000
3607 14137 9173 1 109.50000 418.400000
6253 14138 7246 1 109.50000 418.400000
6253 14138 9176 1 109.50000 418.400000
6253 14138 9177 1 109.50000 418.400000
7246 14138 9176 1 109.50000 418.400000
7246 14138 9177 1 109.50000 418.400000
9176 14138 9177 1 109.50000 418.400000
7495 14139 7857 1 109.50000 418.400000
7495 14139 8721 1 109.50000 418.400000
7495 14139 9178 1 109.50000 418.400000
7857 14139 8721 1 109.50000 418.400000
7857 14139 9178 1 109.50000 418.400000
8721 14139 9178 1 109.50000 418.400000
8105 14140 8106 1 109.50000 418.400000
8105 14140 9179 1 109.50000 418.400000
8105 14140 9181 1 109.50000 418.400000
8106 14140 9179 1 109.50000 418.400000
8106 14140 9181 1 109.50000 418.400000
9179 14140 9181 1 109.50000 418.400000
888 14141 8499 1 109.50000 418.400000
888 14141 9182 1 109.50000 418.400000
888 14141 10755 1 109.50000 418.400000
8499 14141 9182 1 109.50000 418.400000
8499 14141 10755 1 109.50000 418.400000
9182 14141 10755 1 109.50000 418.400000
4467 14142 7166 1 109.50000 418.400000
4467 14142 7779 1 109.50000 418.400000
4467 14142 8461 1 109.50000 418.400000
7166 14142 7779 1 109.50000 418.400000
7166 14142 8461 1 109.50000 418.400000
7779 14142 8461 1 109.50000 418.400000
4434 14143 6199 1 109.50000 418.400000
4434 14143 9183 1 109.50000 418.400000
4434 14143 9184 1 109.50000 418.400000
6199 14143 9183 1 109.50000 418.400000
6199 14143 9184 1 109.50000 418.400000
9183 14143 9184 1 109.50000 418.400000
1647 14144 6689 1 109.50000 418.400000
1647 14144 8503 1 109.50000 418.400000
1647 14144 9185 1 109.50000 418.400000
6689 14144 8503 1 109.50000 418.400000
6689 14144 9185 1 109.50000 418.400000
8503 14144 9185 1 109.50000 418.400000
2001 14145 2545 1 109.50000 418.400000
2001 14145 7946 1 109.50000 418.400000
2001 14145 8034 1 109.50000 418.400000
2545 14145 7946 1 109.50000 418.400000
2545 14145 8034 1 109.50000 418.400000
7946 14145 8034 1 109.50000 418.400000
2910 14146 4299 1 109.50000 418.400000
2910 14146 5482 1 109.50000 418.400000
2910 14146 9186 1 109.50000 418.400000
4299 14146 5482 1 109.50000 418.400000
4299 14146 9186 1 109.50000 418.400000
5482 14146 9186 1 109.50000 418.400000
4999 14147 5713 1 109.50000 418.400000
4999 14147 7644 1 109.50000 418.400000
4999 14147 9187 1 109.50000 418.400000
5713 14147 7644 1 109.50000 418.400000
5713 14147 9187 1 109.50000 418.400000
7644 14147 9187 1 109.50000 418.400000
5584 14148 7481 1 109.50000 418.400000
5584 14148 8765 1 109.50000 418.400000
5584 14148 9188 1 109.50000 418.400000
7481 14148 8765 1 109.50000 418.400000
7481 14148 9188 1 109.50000 418.400000
8765 14148 9188 1 109.50000 418.400000
3018 14149 3390 1 109.50000 418.400000
3018 14149 8539 1 109.50000 418.400000
3018 14149 9192 1 109.50000 418.400000
3390 14149 8539 1 109.50000 418.400000
3390 14149 9192 1 109.50000 418.400000
8539 14149 9192 1 109.50000 418.400000
2159 14150 6561 1 109.50000 418.400000
2159 14150 8370 1 109.50000 418.400000
2159 14150 9195 1 109.50000 418.400000
6561 14150 8370 1 109.50000 418.400000
6561 14150 9195 1 109.50000 418.400000
8370 14150 9195 1 109.50000 418.400000
5531 14151 8263 1 109.50000 418.400000
5531 14151 9196 1 109.50000 418.400000
5531 14151 9197 1 109.50000 418.400000
8263 14151 9196 1 109.50000 418.400000
8263 14151 9197 1 109.50000 418.400000
9196 14151 9197 1 109.50000 418.400000
4827 14152 9198 1 109.50000 418.400000
4827 14152 9199 1 109.50000 418.400000
4827 14152 9200 1 109.50000 418.400000
9198 14152 9199 1 109.50000 418.400000
9198 14152 9200 1 109.50000 418.400000
9199 14152 9200 1 109.50000 418.400000
5375 14153 7144 1 109.50000 418.400000
5375 14153 9201 1 109.50000 418.400000
5375 14153 9202 1 109.50000 418.400000
7144 14153 9201 1 109.50000 418.400000
7144 14153 9202 1 109.50000 418.400000
9201 14153 9202 1 109.50000 418.400000
2977 14154 8293 1 109.50000 418.400000
2977 14154 9203 1 109.50000 418.400000
2977 14154 9204 1 109.50000 418.400000
8293 14154 9203 1 109.50000 418.400000
8293 14154 9204 1 109.50000 418.400000
9203 14154 9204 1 109.50000 418.400000
1522 14155 5271 1 109.50000 418.400000
1522 14155 9205 1 109.50000 418.400000
1522 14155 9206 1 109.50000 418.400000
5271 14155 9205 1 109.50000 418.400000
5271 14155 9206 1 109.50000 418.400000
9205 14155 9206 1 109.50000 418.400000
398 14156 400 1 109.50000 418.400000
398 14156 2911 1 109.50000 418.400000
398 14156 6209 1 109.50000 418.400000
400 14156 2911 1 109.50000 418.400000
400 14156 6209 1 109.50000 418.400000
2911 14156 6209 1 109.50000 418.400000
778 14157 9207 1 109.50000 418.400000
778 14157 9208 1 109.50000 418.400000
778 14157 9209 1 109.50000 418.400000
9207 14157 9208 1 109.50000 418.400000
9207 14157 9209 1 109.50000 418.400000
9208 14157 9209 1 109.50000 418.400000
597 14158 9210 1 109.50000 418.400000
597 14158 9211 1 109.50000 418.400000
597 14158 9212 1 109.50000 418.400000
9210 14158 9211 1 109.50000 418.400000
9210 14158 9212 1 109.50000 418.400000
9211 14158 9212 1 109.50000 418.400000
3187 14159 5684 1 109.50000 418.400000
3187 14159 5911 1 109.50000 418.400000
3187 14159 9213 1 109.50000 418.400000
5684 14159 5911 1 109.50000 418.400000
5684 14159 9213 1 109.50000 418.400000
5911 14159 9213 1 109.50000 418.400000
2071 14160 5035 1 109.50000 418.400000
2071 14160 5076 1 109.50000 418.400000
2071 14160 9214 1 109.50000 418.400000
5035 14160 5076 1 109.50000 418.400000
5035 14160 9214 1 109.50000 418.400000
5076 14160 9214 1 109.50000 418.400000
6185 14161 9215 1 109.50000 418.400000
6185 14161 9362 1 109.50000 418.400000
6185 14161 10920 1 109.50000 418.400000
9215 14161 9362 1 109.50000 418.400000
9215 14161 10920 1 109.50000 418.400000
9362 14161 10920 1 109.50000 418.400000
3597 14162 8501 1 109.50000 418.400000
3597 14162 8777 1 109.50000 418.400000
3597 14162 9218 1 109.50000 418.400000
8501 14162 8777 1 109.50000 418.400000
8501 14162 9218 1 109.50000 418.400000
8777 14162 9218 1 109.50000 418.400000
2782 14163 6255 1 109.50000 418.400000
2782 14163 8254 1 109.50000 418.400000
2782 14163 9219 1 109.50000 418.400000
6255 14163 8254 1 109.50000 418.400000
6255 14163 9219 1 109.50000 418.400000
8254 14163 9219 1 109.50000 418.400000
3319 14164 6208 1 109.50000 418.400000
3319 14164 9220 1 109.50000 418.400000
3319 14164 9221 1 109.50000 418.400000
6208 14164 9220 1 109.50000 418.400000
6208 14164 9221 1 109.50000 418.400000
9220 14164 9221 1 109.50000 418.400000
1311 14165 1320 1 109.50000 418.400000
1311 14165 6637 1 109.50000 418.400000
1311 14165 9222 1 109.50000 418.400000
1320 14165 6637 1 109.50000 418.400000
1320 14165 9222 1 109.50000 418.400000
6637 14165 9222 1 109.50000 418.400000
1902 14166 1905 1 109.50000 418.400000
1902 14166 9223 1 109.50000 418.400000
1902 14166 9224 1 109.50000 418.400000
1905 14166 9223 1 109.50000 418.400000
1905 14166 9224 1 109.50000 418.400000
9223 14166 9224 1 109.50000 418.400000
4335 14167 4788 1 109.50000 418.400000
4335 14167 6777 1 109.50000 418.400000
4335 14167 9225 1 109.50000 418.400000
4788 14167 6777 1 109.50000 418.400000
4788 14167 9225 1 109.50000 418.400000
6777 14167 9225 1 109.50000 418.400000
2750 14168 8051 1 109.50000 418.400000
2750 14168 9226 1 109.50000 418.400000
2750 14168 9227 1 109.50000 418.400000
8051 14168 9226 1 109.50000 418.400000
8051 14168 9227 1 109.50000 418.400000
9226 14168 9227 1 109.50000 418.400000
6797 14169 7227 1 109.50000 418.400000
6797 14169 8066 1 109.50000 418.400000
6797 14169 9228 1 109.50000 418.400000
7227 14169 8066 1 109.50000 418.400000
7227 14169 9228 1 109.50000 418.400000
8066 14169 9228 1 109.50000 418.400000
1477 14170 9229 1 109.50000 418.400000
1477 14170 9230 1 109.50000 418.400000
1477 14170 9231 1 109.50000 418.400000
9229 14170 9230 1 109.50000 418.400000
9229 14170 9231 1 109.50000 418.400000
9230 14170 9231 1 109.50000 418.400000
2084 14171 3816 1 109.50000 418.400000
2084 14171 5748 1 109.50000 418.400000
2084 14171 7106 1 109.50000 418.400000
3816 14171 5748 1 109.50000 418.400000
3816 14171 7106 1 109.50000 418.400000
5748 14171 7106 1 109.50000 418.400000
906 14172 909 1 109.50000 418.400000
906 14172 6923 1 109.50000 418.400000
906 14172 6924 1 109.50000 418.400000
909 14172 6923 1 109.50000 418.400000
909 14172 6924 1 109.50000 418.400000
6923 14172 6924 1 109.50000 418.400000
5125 14173 6770 1 109.50000 418.400000
5125 14173 9232 1 109.50000 418.400000
5125 14173 9233 1 109.50000 418.400000
6770 14173 9232 1 109.50000 418.400000
6770 14173 9233 1 109.50000 418.400000
9232 14173 9233 1 109.50000 418.400000
386 14174 4588 1 109.50000 418.400000
386 14174 8021 1 109.50000 418.400000
386 14174 9219 1 109.50000 418.400000
4588 14174 8021 1 109.50000 418.400000
4588 14174 9219 1 109.50000 418.400000
8021 14174 9219 1 109.50000 418.400000
455 14175 5669 1 109.50000 418.400000
455 14175 9234 1 109.50000 418.400000
455 14175 9235 1 109.50000 418.400000
5669 14175 9234 1 109.50000 418.400000
5669 14175 9235 1 109.50000 418.400000
9234 14175 9235 1 109.50000 418.400000
616 14176 8056 1 109.50000 418.400000
616 14176 9236 1 109.50000 418.400000
616 14176 9237 1 109.50000 418.400000
8056 14176 9236 1 109.50000 418.400000
8056 14176 9237 1 109.50000 418.400000
9236 14176 9237 1 109.50000 418.400000
4622 14177 5687 1 109.50000 418.400000
4622 14177 9238 1 109.50000 418.400000
4622 14177 9239 1 109.50000 418.400000
5687 14177 9238 1 109.50000 418.400000
5687 14177 9239 1 109.50000 418.400000
9238 14177 9239 1 109.50000 418.400000
2168 14178 9240 1 109.50000 418.400000
2168 14178 9241 1 109.50000 418.400000
2168 14178 9242 1 109.50000 418.400000
9240 14178 9241 1 109.50000 418.400000
9240 14178 9242 1 109.50000 418.400000
9241 14178 9242 1 109.50000 418.400000
5098 14179 7235 1 109.50000 418.400000
5098 14179 9243 1 109.50000 418.400000
5098 14179 9244 1 109.50000 418.400000
7235 14179 9243 1 109.50000 418.400000
7235 14179 9244 1 109.50000 418.400000
9243 14179 9244 1 109.50000 418.400000
3412 14180 9245 1 109.50000 418.400000
3412 14180 9246 1 109.50000 418.400000
3412 14180 9247 1 109.50000 418.400000
9245 14180 9246 1 109.50000 418.400000
9245 14180 9247 1 109.50000 418.400000
9246 14180 9247 1 109.50000 418.400000
7040 14181 9248 1 109.50000 418.400000
7040 14181 9249 1 109.50000 418.400000
7040 14181 9250 1 109.50000 418.400000
9248 14181 9249 1 109.50000 418.400000
9248 14181 9250 1 109.50000 418.400000
9249 14181 9250 1 109.50000 418.400000
2503 14182 8525 1 109.50000 418.400000
2503 14182 9251 1 109.50000 418.400000
2503 14182 9252 1 109.50000 418.400000
8525 14182 9251 1 109.50000 418.400000
8525 14182 9252 1 109.50000 418.400000
9251 14182 9252 1 109.50000 418.400000
4421 14183 6606 1 109.50000 418.400000
4421 14183 7682 1 109.50000 418.400000
4421 14183 9253 1 109.50000 418.400000
6606 14183 7682 1 109.50000 418.400000
6606 14183 9253 1 109.50000 418.400000
7682 14183 9253 1 109.50000 418.400000
6044 14184 7352 1 109.50000 418.400000
6044 14184 9255 1 109.50000 418.400000
6044 14184 9256 1 109.50000 418.400000
7352 14184 9255 1 109.50000 418.400000
7352 14184 9256 1 109.50000 418.400000
9255 14184 9256 1 109.50000 418.400000
472 14185 5524 1 109.50000 418.400000
472 14185 9257 1 109.50000 418.400000
472 14185 9258 1 109.50000 418.400000
5524 14185 9257 1 109.50000 418.400000
5524 14185 9258 1 109.50000 418.400000
9257 14185 9258 1 109.50000 418.400000
5757 14186 7292 1 109.50000 418.400000
5757 14186 9259 1 109.50000 418.400000
5757 14186 9260 1 109.50000 418.400000
7292 14186 9259 1 109.50000 418.400000
7292 14186 9260 1 109.50000 418.400000
9259 14186 9260 1 109.50000 418.400000
4716 14187 4892 1 109.50000 418.400000
4716 14187 9261 1 109.50000 418.400000
4716 14187 9262 1 109.50000 418.400000
4892 14187 9261 1 109.50000 418.400000
4892 14187 9262 1 109.50000 418.400000
9261 14187 9262 1 109.50000 418.400000
2096 14188 6192 1 109.50000 418.400000
2096 14188 9249 1 109.50000 418.400000
2096 14188 9265 1 109.50000 418.400000
6192 14188 9249 1 109.50000 418.400000
6192 14188 9265 1 109.50000 418.400000
9249 14188 9265 1 109.50000 418.400000
302 14189 3673 1 109.50000 418.400000
302 14189 7089 1 109.50000 418.400000
302 14189 9063 1 109.50000 418.400000
3673 14189 7089 1 109.50000 418.400000
3673 14189 9063 1 109.50000 418.400000
7089 14189 9063 1 109.50000 418.400000
6857 14190 9266 1 109.50000 418.400000
6857 14190 9267 1 109.50000 418.400000
6857 14190 9268 1 109.50000 418.400000
9266 14190 9267 1 109.50000 418.400000
9266 14190 9268 1 109.50000 418.400000
9267 14190 9268 1 109.50000 418.400000
1889 14191 7433 1 109.50000 418.400000
1889 14191 9269 1 109.50000 418.400000
1889 14191 11185 1 109.50000 418.400000
7433 14191 9269 1 109.50000 418.400000
7433 14191 11185 1 109.50000 418.400000
9269 14191 11185 1 109.50000 418.400000
3919 14192 6397 1 109.50000 418.400000
3919 14192 9012 1 109.50000 418.400000
3919 14192 9270 1 109.50000 418.400000
6397 14192 9012 1 109.50000 418.400000
6397 14192 9270 1 109.50000 418.400000
9012 14192 9270 1 109.50000 418.400000
7044 14193 9272 1 109.50000 418.400000
7044 14193 9273 1 109.50000 418.400000
7044 14193 9274 1 109.50000 418.400000
9272 14193 9273 1 109.50000 418.400000
9272 14193 9274 1 109.50000 418.400000
9273 14193 9274 1 109.50000 418.400000
1219 14194 4551 1 109.50000 418.400000
1219 14194 5837 1 109.50000 418.400000
1219 14194 9275 1 109.50000 418.400000
4551 14194 5837 1 109.50000 418.400000
4551 14194 9275 1 109.50000 418.400000
5837 14194 9275 1 109.50000 418.400000
184 14195 278 1 109.50000 418.400000
184 14195 3009 1 109.50000 418.400000
184 14195 9277 1 109.50000 418.400000
278 14195 3009 1 109.50000 418.400000
278 14195 9277 1 109.50000 418.400000
3009 14195 9277 1 109.50000 418.400000
3573 14196 4475 1 109.50000 418.400000
3573 14196 7572 1 109.50000 418.400000
3573 14196 9278 1 109.50000 418.400000
4475 14196 7572 1 109.50000 418.400000
4475 14196 9278 1 109.50000 418.400000
7572 14196 9278 1 109.50000 418.400000
265 14197 9279 1 109.50000 418.400000
265 14197 9280 1 109.50000 418.400000
265 14197 9281 1 109.50000 418.400000
9279 14197 9280 1 109.50000 418.400000
9279 14197 9281 1 109.50000 418.400000
9280 14197 9281 1 109.50000 418.400000
1997 14198 2669 1 109.50000 418.400000
1997 14198 8796 1 109.50000 418.400000
1997 14198 9282 1 109.50000 418.400000
2669 14198 8796 1 109.50000 418.400000
2669 14198 9282 1 109.50000 418.400000
8796 14198 9282 1 109.50000 418.400000
1454 14199 2473 1 109.50000 418.400000
1454 14199 4854 1 109.50000 418.400000
1454 14199 5444 1 109.50000 418.400000
2473 14199 4854 1 109.50000 418.400000
2473 14199 5444 1 109.50000 418.400000
4854 14199 5444 1 109.50000 418.400000
354 14200 1839 1 109.50000 418.400000
354 14200 6493 1 109.50000 418.400000
354 14200 9285 1 109.50000 418.400000
1839 14200 6493 1 109.50000 418.400000
1839 14200 9285 1 109.50000 418.400000
6493 14200 9285 1 109.50000 418.400000
3220 14201 8389 1 109.50000 418.400000
3220 14201 9286 1 109.50000 418.400000
3220 14201 11226 1 109.50000 418.400000
8389 14201 9286 1 109.50000 418.400000
8389 14201 11226 1 109.50000 418.400000
9286 14201 11226 1 109.50000 418.400000
6460 14202 7333 1 109.50000 418.400000
6460 14202 9287 1 109.50000 418.400000
6460 14202 9288 1 109.50000 418.400000
7333 14202 9287 1 109.50000 418.400000
7333 14202 9288 1 109.50000 418.400000
9287 14202 9288 1 109.50000 418.400000
7392 14203 9289 1 109.50000 418.400000
7392 14203 9290 1 109.50000 418.400000
7392 14203 9291 1 109.50000 418.400000
9289 14203 9290 1 109.50000 418.400000
9289 14203 9291 1 109.50000 418.400000
9290 14203 9291 1 109.50000 418.400000
1359 14204 9213 1 109.50000 418.400000
1359 14204 9292 1 109.50000 418.400000
1359 14204 9293 1 109.50000 418.400000
9213 14204 9292 1 109.50000 418.400000
9213 14204 9293 1 109.50000 418.400000
9292 14204 9293 1 109.50000 418.400000
4747 14205 7608 1 109.50000 418.400000
4747 14205 8320 1 109.50000 418.400000
4747 14205 8835 1 109.50000 418.400000
7608 14205 8320 1 109.50000 418.400000
7608 14205 8835 1 109.50000 418.400000
8320 14205 8835 1 109.50000 418.400000
1682 14206 4350 1 109.50000 418.400000
1682 14206 6725 1 109.50000 418.400000
1682 14206 9294 1 109.50000 418.400000
4350 14206 6725 1 109.50000 418.400000
4350 14206 9294 1 109.50000 418.400000
6725 14206 9294 1 109.50000 418.400000
604 14207 6948 1 109.50000 418.400000
604 14207 9295 1 109.50000 418.400000
604 14207 9296 1 109.50000 418.400000
6948 14207 9295 1 109.50000 418.400000
6948 14207 9296 1 109.50000 418.400000
9295 14207 9296 1 109.50000 418.400000
2593 14208 9297 1 109.50000 418.400000
2593 14208 9298 1 109.50000 418.400000
2593 14208 9299 1 109.50000 418.400000
9297 14208 9298 1 109.50000 418.400000
9297 14208 9299 1 109.50000 418.400000
9298 14208 9299 1 109.50000 418.400000
2978 14209 6429 1 109.50000 418.400000
2978 14209 9300 1 109.50000 418.400000
2978 14209 9301 1 109.50000 418.400000
6429 14209 9300 1 109.50000 418.400000
6429 14209 9301 1 109.50000 418.400000
9300 14209 9301 1 109.50000 418.400000
1851 14210 8192 1 109.50000 418.400000
1851 14210 9302 1 109.50000 418.400000
1851 14210 9303 1 109.50000 418.400000
8192 14210 9302 1 109.50000 418.400000
8192 14210 9303 1 109.50000 418.400000
9302 14210 9303 1 109.50000 418.400000
5768 14211 8204 1 109.50000 418.400000
5768 14211 9280 1 109.50000 418.400000
5768 14211 9304 1 109.50000 418.400000
8204 14211 9280 1 109.50000 418.400000
8204 14211 9304 1 109.50000 418.400000
9280 14211 9304 1 109.50000 418.400000
793 14212 9305 1 109.50000 418.400000
793 14212 9306 1 109.50000 418.400000
793 14212 9307 1 109.50000 418.400000
9305 14212 9306 1 109.50000 418.400000
9305 14212 9307 1 109.50000 418.400000
9306 14212 9307 1 109.50000 418.400000
3272 14213 7165 1 109.50000 418.400000
3272 14213 8890 1 109.50000 418.400000
3272 14213 9308 1 109.50000 418.400000
7165 14213 8890 1 109.50000 418.400000
7165 14213 9308 1 109.50000 418.400000
8890 14213 9308 1 109.50000 418.400000
857 14214 6099 1 109.50000 418.400000
857 14214 8573 1 109.50000 418.400000
857 14214 8701 1 109.50000 418.400000
6099 14214 8573 1 109.50000 418.400000
6099 14214 8701 1 109.50000 418.400000
8573 14214 8701 1 109.50000 418.400000
1842 14215 3856 1 109.50000 418.400000
1842 14215 8779 1 109.50000 418.400000
1842 14215 9309 1 109.50000 418.400000
3856 14215 8779 1 109.50000 418.400000
3856 14215 9309 1 109.50000 418.400000
8779 14215 9309 1 109.50000 418.400000
3985 14216 6083 1 109.50000 418.400000
3985 14216 9310 1 109.50000 418.400000
3985 14216 9311 1 109.50000 418.400000
6083 14216 9310 1 109.50000 418.400000
6083 14216 9311 1 109.50000 418.400000
9310 14216 9311 1 109.50000 418.400000
8168 14217 9312 1 109.50000 418.400000
8168 14217 9313 1 109.50000 418.400000
8168 14217 9314 1 109.50000 418.400000
9312 14217 9313 1 109.50000 418.400000
9312 14217 9314 1 109.50000 418.400000
9313 14217 9314 1 109.50000 418.400000
2664 14218 7415 1 109.50000 418.400000
2664 14218 8216 1 109.50000 418.400000
2664 14218 8217 1 109.50000 418.400000
7415 14218 8216 1 109.50000 418.400000
7415 14218 8217 1 109.50000 418.400000
8216 14218 8217 1 109.50000 418.400000
5511 14219 8695 1 109.50000 418.400000
5511 14219 9315 1 109.50000 418.400000
5511 14219 9316 1 109.50000 418.400000
8695 14219 9315 1 109.50000 418.400000
8695 14219 9316 1 109.50000 418.400000
9315 14219 9316 1 109.50000 418.400000
1965 14220 2371 1 109.50000 418.400000
1965 14220 3102 1 109.50000 418.400000
1965 14220 9317 1 109.50000 418.400000
2371 14220 3102 1 109.50000 418.400000
2371 14220 9317 1 109.50000 418.400000
3102 14220 9317 1 109.50000 418.400000
6301 14221 7641 1 109.50000 418.400000
6301 14221 8868 1 109.50000 418.400000
6301 14221 9085 1 109.50000 418.400000
7641 14221 8868 1 109.50000 418.400000
7641 14221 9085 1 109.50000 418.400000
8868 14221 9085 1 109.50000 418.400000
1400 14222 6249 1 109.50000 418.400000
1400 14222 6542 1 109.50000 418.400000
1400 14222 8857 1 109.50000 418.400000
6249 14222 6542 1 109.50000 418.400000
6249 14222 8857 1 109.50000 418.400000
6542 14222 8857 1 109.50000 418.400000
6085 14223 9318 1 109.50000 418.400000
6085 14223 9319 1 109.50000 418.400000
6085 14223 9320 1 109.50000 418.400000
9318 14223 9319 1 109.50000 418.400000
9318 14223 9320 1 109.50000 418.400000
9319 14223 9320 1 109.50000 418.400000
6546 14224 7320 1 109.50000 418.400000
6546 14224 9321 1 109.50000 418.400000
6546 14224 9322 1 109.50000 418.400000
7320 14224 9321 1 109.50000 418.400000
7320 14224 9322 1 109.50000 418.400000
9321 14224 9322 1 109.50000 418.400000
3070 14225 5523 1 109.50000 418.400000
3070 14225 5603 1 109.50000 418.400000
3070 14225 9323 1 109.50000 418.400000
5523 14225 5603 1 109.50000 418.400000
5523 14225 9323 1 109.50000 418.400000
5603 14225 9323 1 109.50000 418.400000
1084 14226 8891 1 109.50000 418.400000
1084 14226 9324 1 109.50000 418.400000
1084 14226 9325 1 109.50000 418.400000
8891 14226 9324 1 109.50000 418.400000
8891 14226 9325 1 109.50000 418.400000
9324 14226 9325 1 109.50000 418.400000
7339 14227 7448 1 109.50000 418.400000
7339 14227 7743 1 109.50000 418.400000
7339 14227 9138 1 109.50000 418.400000
7448 14227 7743 1 109.50000 418.400000
7448 14227 9138 1 109.50000 418.400000
7743 14227 9138 1 109.50000 418.400000
3130 14228 3349 1 109.50000 418.400000
3130 14228 9326 1 109.50000 418.400000
3130 14228 9327 1 109.50000 418.400000
3349 14228 9326 1 109.50000 418.400000
3349 14228 9327 1 109.50000 418.400000
9326 14228 9327 1 109.50000 418.400000
1532 14229 5265 1 109.50000 418.400000
1532 14229 7158 1 109.50000 418.400000
1532 14229 9328 1 109.50000 418.400000
5265 14229 7158 1 109.50000 418.400000
5265 14229 9328 1 109.50000 418.400000
7158 14229 9328 1 109.50000 418.400000
6034 14230 6464 1 109.50000 418.400000
6034 14230 8089 1 109.50000 418.400000
6034 14230 9330 1 109.50000 418.400000
6464 14230 8089 1 109.50000 418.400000
6464 14230 9330 1 109.50000 418.400000
8089 14230 9330 1 109.50000 418.400000
9244 14231 9331 1 109.50000 418.400000
9244 14231 9332 1 109.50000 418.400000
9244 14231 9333 1 109.50000 418.400000
9331 14231 9332 1 109.50000 418.400000
9331 14231 9333 1 109.50000 418.400000
9332 14231 9333 1 109.50000 418.400000
5594 14232 7703 1 109.50000 418.400000
5594 14232 9334 1 109.50000 418.400000
5594 14232 9335 1 109.50000 418.400000
7703 14232 9334 1 109.50000 418.400000
7703 14232 9335 1 109.50000 418.400000
9334 14232 9335 1 109.50000 418.400000
1900 14233 3915 1 109.50000 418.400000
1900 14233 8036 1 109.50000 418.400000
1900 14233 9336 1 109.50000 418.400000
3915 14233 8036 1 109.50000 418.400000
3915 14233 9336 1 109.50000 418.400000
8036 14233 9336 1 109.50000 418.400000
8452 14234 8989 1 109.50000 418.400000
8452 14234 9337 1 109.50000 418.400000
8452 14234 9338 1 109.50000 418.400000
8989 14234 9337 1 109.50000 418.400000
8989 14234 9338 1 109.50000 418.400000
9337 14234 9338 1 109.50000 418.400000
1114 14235 4138 1 109.50000 418.400000
1114 14235 8377 1 109.50000 418.400000
1114 14235 9339 1 109.50000 418.400000
4138 14235 8377 1 109.50000 418.400000
4138 14235 9339 1 109.50000 418.400000
8377 14235 9339 1 109.50000 418.400000
4962 14236 9340 1 109.50000 418.400000
4962 14236 9341 1 109.50000 418.400000
4962 14236 10737 1 109.50000 418.400000
9340 14236 9341 1 109.50000 418.400000
9340 14236 10737 1 109.50000 418.400000
9341 14236 10737 1 109.50000 418.400000
831 14237 1680 1 109.50000 418.400000
831 14237 9342 1 109.50000 418.400000
831 14237 9343 1 109.50000 418.400000
1680 14237 9342 1 109.50000 418.400000
1680 14237 9343 1 109.50000 418.400000
9342 14237 9343 1 109.50000 418.400000
2618 14238 2805 1 109.50000 418.400000
2618 14238 9344 1 109.50000 418.400000
2618 14238 9345 1 109.50000 418.400000
2805 14238 9344 1 109.50000 418.400000
2805 14238 9345 1 109.50000 418.400000
9344 14238 9345 1 109.50000 418.400000
3675 14239 4035 1 109.50000 418.400000
3675 14239 7034 1 109.50000 418.400000
3675 14239 9346 1 109.50000 418.400000
4035 14239 7034 1 109.50000 418.400000
4035 14239 9346 1 109.50000 418.400000
7034 14239 9346 1 109.50000 418.400000
3621 14240 6193 1 109.50000 418.400000
3621 14240 7327 1 109.50000 418.400000
3621 14240 9347 1 109.50000 418.400000
6193 14240 7327 1 109.50000 418.400000
6193 14240 9347 1 109.50000 418.400000
7327 14240 9347 1 109.50000 418.400000
886 14241 6635 1 109.50000 418.400000
886 14241 9151 1 109.50000 418.400000
886 14241 9349 1 109.50000 418.400000
6635 14241 9151 1 109.50000 418.400000
6635 14241 9349 1 109.50000 418.400000
9151 14241 9349 1 109.50000 418.400000
4173 14242 7977 1 109.50000 418.400000
4173 14242 8976 1 109.50000 418.400000
4173 14242 9350 1 109.50000 418.400000
7977 14242 8976 1 109.50000 418.400000
7977 14242 9350 1 109.50000 418.400000
8976 14242 9350 1 109.50000 418.400000
1607 14243 5689 1 109.50000 418.400000
1607 14243 9351 1 109.50000 418.400000
1607 14243 9352 1 109.50000 418.400000
5689 14243 9351 1 109.50000 418.400000
5689 14243 9352 1 109.50000 418.400000
9351 14243 9352 1 109.50000 418.400000
6335 14244 6384 1 109.50000 418.400000
6335 14244 9353 1 109.50000 418.400000
6335 14244 11242 1 109.50000 418.400000
6384 14244 9353 1 109.50000 418.400000
6384 14244 11242 1 109.50000 418.400000
9353 14244 11242 1 109.50000 418.400000
49 14245 766 1 109.50000 418.400000
49 14245 5432 1 109.50000 418.400000
49 14245 9354 1 109.50000 418.400000
766 14245 5432 1 109.50000 418.400000
766 14245 9354 1 109.50000 418.400000
5432 14245 9354 1 109.50000 418.400000
6212 14246 8623 1 109.50000 418.400000
6212 14246 9355 1 109.50000 418.400000
6212 14246 9356 1 109.50000 418.400000
8623 14246 9355 1 109.50000 418.400000
8623 14246 9356 1 109.50000 418.400000
9355 14246 9356 1 109.50000 418.400000
666 14247 1511 1 109.50000 418.400000
666 14247 3824 1 109.50000 418.400000
666 14247 9357 1 109.50000 418.400000
1511 14247 3824 1 109.50000 418.400000
1511 14247 9357 1 109.50000 418.400000
3824 14247 9357 1 109.50000 418.400000
6980 14248 7277 1 109.50000 418.400000
6980 14248 9358 1 109.50000 418.400000
6980 14248 9360 1 109.50000 418.400000
7277 14248 9358 1 109.50000 418.400000
7277 14248 9360 1 109.50000 418.400000
9358 14248 9360 1 109.50000 418.400000
2533 14249 4472 1 109.50000 418.400000
2533 14249 6972 1 109.50000 418.400000
2533 14249 9361 1 109.50000 418.400000
4472 14249 6972 1 109.50000 418.400000
4472 14249 9361 1 109.50000 418.400000
6972 14249 9361 1 109.50000 418.400000
6539 14250 6757 1 109.50000 418.400000
6539 14250 8948 1 109.50000 418.400000
6539 14250 9216 1 109.50000 418.400000
6757 14250 8948 1 109.50000 418.400000
6757 14250 9216 1 109.50000 418.400000
8948 14250 9216 1 109.50000 418.400000
2767 14251 7872 1 109.50000 418.400000
2767 14251 9363 1 109.50000 418.400000
2767 14251 9364 1 109.50000 418.400000
7872 14251 9363 1 109.50000 418.400000
7872 14251 9364 1 109.50000 418.400000
9363 14251 9364 1 109.50000 418.400000
6996 14252 9365 1 109.50000 418.400000
6996 14252 9366 1 109.50000 418.400000
6996 14252 9367 1 109.50000 418.400000
9365 14252 9366 1 109.50000 418.400000
9365 14252 9367 1 109.50000 418.400000
9366 14252 9367 1 109.50000 418.400000
6453 14253 6631 1 109.50000 418.400000
6453 14253 9368 1 109.50000 418.400000
6453 14253 9369 1 109.50000 418.400000
6631 14253 9368 1 109.50000 418.400000
6631 14253 9369 1 109.50000 418.400000
9368 14253 9369 1 109.50000 418.400000
7410 14254 7901 1 109.50000 418.400000
7410 14254 7919 1 109.50000 418.400000
7410 14254 9370 1 109.50000 418.400000
7901 14254 7919 1 109.50000 418.400000
7901 14254 9370 1 109.50000 418.400000
7919 14254 9370 1 109.50000 418.400000
236 14255 6964 1 109.50000 418.400000
236 14255 9371 1 109.50000 418.400000
236 14255 9372 1 109.50000 418.400000
6964 14255 9371 1 109.50000 418.400000
6964 14255 9372 1 109.50000 418.400000
9371 14255 9372 1 109.50000 418.400000
963 14256 2448 1 109.50000 418.400000
963 14256 6846 1 109.50000 418.400000
963 14256 9373 1 109.50000 418.400000
2448 14256 6846 1 109.50000 418.400000
2448 14256 9373 1 109.50000 418.400000
6846 14256 9373 1 109.50000 418.400000
3449 14257 5026 1 109.50000 418.400000
3449 14257 9374 1 109.50000 418.400000
3449 14257 10082 1 109.50000 418.400000
5026 14257 9374 1 109.50000 418.400000
5026 14257 10082 1 109.50000 418.400000
9374 14257 10082 1 109.50000 418.400000
2783 14258 8277 1 109.50000 418.400000
2783 14258 9376 1 109.50000 418.400000
2783 14258 9377 1 109.50000 418.400000
8277 14258 9376 1 109.50000 418.400000
8277 14258 9377 1 109.50000 418.400000
9376 14258 9377 1 109.50000 418.400000
42 14259 9378 1 109.50000 418.400000
42 14259 9379 1 109.50000 418.400000
42 14259 9777 1 109.50000 418.400000
9378 14259 9379 1 109.50000 418.400000
9378 14259 9777 1 109.50000 418.400000
9379 14259 9777 1 109.50000 418.400000
3812 14260 3815 1 109.50000 418.400000
3812 14260 9380 1 109.50000 418.400000
3812 14260 9381 1 109.50000 418.400000
3815 14260 9380 1 109.50000 418.400000
3815 14260 9381 1 109.50000 418.400000
9380 14260 9381 1 109.50000 418.400000
6779 14261 9382 1 109.50000 418.400000
6779 14261 9383 1 109.50000 418.400000
6779 14261 9485 1 109.50000 418.400000
9382 14261 9383 1 109.50000 418.400000
9382 14261 9485 1 109.50000 418.400000
9383 14261 9485 1 109.50000 418.400000
5715 14262 6813 1 109.50000 418.400000
5715 14262 7665 1 109.50000 418.400000
5715 14262 9384 1 109.50000 418.400000
6813 14262 7665 1 109.50000 418.400000
6813 14262 9384 1 109.50000 418.400000
7665 14262 9384 1 109.50000 418.400000
8203 14263 9385 1 109.50000 418.400000
8203 14263 9386 1 109.50000 418.400000
8203 14263 9387 1 109.50000 418.400000
9385 14263 9386 1 109.50000 418.400000
9385 14263 9387 1 109.50000 418.400000
9386 14263 9387 1 109.50000 418.400000
1789 14264 8357 1 109.50000 418.400000
1789 14264 9389 1 109.50000 418.400000
1789 14264 9390 1 109.50000 418.400000
8357 14264 9389 1 109.50000 418.400000
8357 14264 9390 1 109.50000 418.400000
9389 14264 9390 1 109.50000 418.400000
5241 14265 6703 1 109.50000 418.400000
5241 14265 6704 1 109.50000 418.400000
5241 14265 9391 1 109.50000 418.400000
6703 14265 6704 1 109.50000 418.400000
6703 14265 9391 1 109.50000 418.400000
6704 14265 9391 1 109.50000 418.400000
4935 14266 5939 1 109.50000 418.400000
4935 14266 8441 1 109.50000 418.400000
4935 14266 9392 1 109.50000 418.400000
5939 14266 8441 1 109.50000 418.400000
5939 14266 9392 1 109.50000 418.400000
8441 14266 9392 1 109.50000 418.400000
7067 14267 9393 1 109.50000 418.400000
7067 14267 9394 1 109.50000 418.400000
7067 14267 9395 1 109.50000 418.400000
9393 14267 9394 1 109.50000 418.400000
9393 14267 9395 1 109.50000 418.400000
9394 14267 9395 1 109.50000 418.400000
5470 14268 6472 1 109.50000 418.400000
5470 14268 8797 1 109.50000 418.400000
5470 14268 9396 1 109.50000 418.400000
6472 14268 8797 1 109.50000 418.400000
6472 14268 9396 1 109.50000 418.400000
8797 14268 9396 1 109.50000 418.400000
663 14269 2803 1 109.50000 418.400000
663 14269 5494 1 109.50000 418.400000
663 14269 7731 1 109.50000 418.400000
2803 14269 5494 1 109.50000 418.400000
2803 14269 7731 1 109.50000 418.400000
5494 14269 7731 1 109.50000 418.400000
2722 14270 9397 1 109.50000 418.400000
2722 14270 9398 1 109.50000 418.400000
2722 14270 9399 1 109.50000 418.400000
9397 14270 9398 1 109.50000 418.400000
9397 14270 9399 1 109.50000 418.400000
9398 14270 9399 1 109.50000 418.400000
2225 14271 4310 1 109.50000 418.400000
2225 14271 5569 1 109.50000 418.400000
2225 14271 9400 1 109.50000 418.400000
4310 14271 5569 1 109.50000 418.400000
4310 14271 9400 1 109.50000 418.400000
5569 14271 9400 1 109.50000 418.400000
4296 14272 6111 1 109.50000 418.400000
4296 14272 7651 1 109.50000 418.400000
4296 14272 9401 1 109.50000 418.400000
6111 14272 7651 1 109.50000 418.400000
6111 14272 9401 1 109.50000 418.400000
7651 14272 9401 1 109.50000 418.400000
7784 14273 7785 1 109.50000 418.400000
7784 14273 9402 1 109.50000 418.400000
7784 14273 9403 1 109.50000 418.400000
7785 14273 9402 1 109.50000 418.400000
7785 14273 9403 1 109.50000 418.400000
9402 14273 9403 1 109.50000 418.400000
3545 14274 7622 1 109.50000 418.400000
3545 14274 8481 1 109.50000 418.400000
3545 14274 9404 1 109.50000 418.400000
7622 14274 8481 1 109.50000 418.400000
7622 14274 9404 1 109.50000 418.400000
8481 14274 9404 1 109.50000 418.400000
2292 14275 4925 1 109.50000 418.400000
2292 14275 7393 1 109.50000 418.400000
2292 14275 8660 1 109.50000 418.400000
4925 14275 7393 1 109.50000 418.400000
4925 14275 8660 1 109.50000 418.400000
7393 14275 8660 1 109.50000 418.400000
1907 14276 4440 1 109.50000 418.400000
1907 14276 4843 1 109.50000 418.400000
1907 14276 8652 1 109.50000 418.400000
4440 14276 4843 1 109.50000 418.400000
4440 14276 8652 1 109.50000 418.400000
4843 14276 8652 1 109.50000 418.400000
1270 14277 1321 1 109.50000 418.400000
1270 14277 7295 1 109.50000 418.400000
1270 14277 9406 1 109.50000 418.400000
1321 14277 7295 1 109.50000 418.400000
1321 14277 9406 1 109.50000 418.400000
7295 14277 9406 1 109.50000 418.400000
7640 14278 8356 1 109.50000 418.400000
7640 14278 9407 1 109.50000 418.400000
7640 14278 9408 1 109.50000 418.400000
8356 14278 9407 1 109.50000 418.400000
8356 14278 9408 1 109.50000 418.400000
9407 14278 9408 1 109.50000 418.400000
195 14279 3958 1 109.50000 418.400000
195 14279 7728 1 109.50000 418.400000
195 14279 9409 1 109.50000 418.400000
3958 14279 7728 1 109.50000 418.400000
3958 14279 9409 1 109.50000 418.400000
7728 14279 9409 1 109.50000 418.400000
288 14280 4007 1 109.50000 418.400000
288 14280 9410 1 109.50000 418.400000
288 14280 9411 1 109.50000 418.400000
4007 14280 9410 1 109.50000 418.400000
4007 14280 9411 1 109.50000 418.400000
9410 14280 9411 1 109.50000 418.400000
3452 14281 5127 1 109.50000 418.400000
3452 14281 9412 1 109.50000 418.400000
3452 14281 9413 1 109.50000 418.400000
5127 14281 9412 1 109.50000 418.400000
5127 14281 9413 1 109.50000 418.400000
9412 14281 9413 1 109.50000 418.400000
3361 14282 4473 1 109.50000 418.400000
3361 14282 8001 1 109.50000 418.400000
3361 14282 9414 1 109.50000 418.400000
4473 14282 8001 1 109.50000 418.400000
4473 14282 9414 1 109.50000 418.400000
8001 14282 9414 1 109.50000 418.400000
9415 14283 9416 1 109.50000 418.400000
9415 14283 9417 1 109.50000 418.400000
9415 14283 9418 1 109.50000 418.400000
9416 14283 9417 1 109.50000 418.400000
9416 14283 9418 1 109.50000 418.400000
9417 14283 9418 1 109.50000 418.400000
2508 14284 2668 1 109.50000 418.400000
2508 14284 7837 1 109.50000 418.400000
2508 14284 9419 1 109.50000 418.400000
2668 14284 7837 1 109.50000 418.400000
2668 14284 9419 1 109.50000 418.400000
7837 14284 9419 1 109.50000 418.400000
5895 14285 9420 1 109.50000 418.400000
5895 14285 9421 1 109.50000 418.400000
5895 14285 9422 1 109.50000 418.400000
9420 14285 9421 1 109.50000 418.400000
9420 14285 9422 1 109.50000 418.400000
9421 14285 9422 1 109.50000 418.400000
2889 14286 9423 1 109.50000 418.400000
2889 14286 9424 1 109.50000 418.400000
2889 14286 9425 1 109.50000 418.400000
9423 14286 9424 1 109.50000 418.400000
9423 14286 9425 1 109.50000 418.400000
9424 14286 9425 1 109.50000 418.400000
3792 14287 5682 1 109.50000 418.400000
3792 14287 7683 1 109.50000 418.400000
3792 14287 9426 1 109.50000 418.400000
5682 14287 7683 1 109.50000 418.400000
5682 14287 9426 1 109.50000 418.400000
7683 14287 9426 1 109.50000 418.400000
1582 14288 4289 1 109.50000 418.400000
1582 14288 6292 1 109.50000 418.400000
1582 14288 9427 1 109.50000 418.400000
4289 14288 6292 1 109.50000 418.400000
4289 14288 9427 1 109.50000 418.400000
6292 14288 9427 1 109.50000 418.400000
881 14289 7866 1 109.50000 418.400000
881 14289 9428 1 109.50000 418.400000
881 14289 9429 1 109.50000 418.400000
7866 14289 9428 1 109.50000 418.400000
7866 14289 9429 1 109.50000 418.400000
9428 14289 9429 1 109.50000 418.400000
7507 14290 7508 1 109.50000 418.400000
7507 14290 8392 1 109.50000 418.400000
7507 14290 9431 1 109.50000 418.400000
7508 14290 8392 1 109.50000 418.400000
7508 14290 9431 1 109.50000 418.400000
8392 14290 9431 1 109.50000 418.400000
2434 14291 9432 1 109.50000 418.400000
2434 14291 9433 1 109.50000 418.400000
2434 14291 9567 1 109.50000 418.400000
9432 14291 9433 1 109.50000 418.400000
9432 14291 9567 1 109.50000 418.400000
9433 14291 9567 1 109.50000 418.400000
4233 14292 7371 1 109.50000 418.400000
4233 14292 7384 1 109.50000 418.400000
4233 14292 9434 1 109.50000 418.400000
7371 14292 7384 1 109.50000 418.400000
7371 14292 9434 1 109.50000 418.400000
7384 14292 9434 1 109.50000 418.400000
1191 14293 4169 1 109.50000 418.400000
1191 14293 9435 1 109.50000 418.400000
1191 14293 9436 1 109.50000 418.400000
4169 14293 9435 1 109.50000 418.400000
4169 14293 9436 1 109.50000 418.400000
9435 14293 9436 1 109.50000 418.400000
703 14294 1322 1 109.50000 418.400000
703 14294 1804 1 109.50000 418.400000
703 14294 9437 1 109.50000 418.400000
1322 14294 1804 1 109.50000 418.400000
1322 14294 9437 1 109.50000 418.400000
1804 14294 9437 1 109.50000 418.400000
713 14295 2250 1 109.50000 418.400000
713 14295 3931 1 109.50000 418.400000
713 14295 5756 1 109.50000 418.400000
2250 14295 3931 1 109.50000 418.400000
2250 14295 5756 1 109.50000 418.400000
3931 14295 5756 1 109.50000 418.400000
6984 14296 8131 1 109.50000 418.400000
6984 14296 9438 1 109.50000 418.400000
6984 14296 9439 1 109.50000 418.400000
8131 14296 9438 1 109.50000 418.400000
8131 14296 9439 1 109.50000 418.400000
9438 14296 9439 1 109.50000 418.400000
1778 14297 5868 1 109.50000 418.400000
1778 14297 7445 1 109.50000 418.400000
1778 14297 9440 1 109.50000 418.400000
5868 14297 7445 1 109.50000 418.400000
5868 14297 9440 1 109.50000 418.400000
7445 14297 9440 1 109.50000 418.400000
5235 14298 9094 1 109.50000 418.400000
5235 14298 9250 1 109.50000 418.400000
5235 14298 9441 1 109.50000 418.400000
9094 14298 9250 1 109.50000 418.400000
9094 14298 9441 1 109.50000 418.400000
9250 14298 9441 1 109.50000 418.400000
5122 14299 8886 1 109.50000 418.400000
5122 14299 9442 1 109.50000 418.400000
5122 14299 9443 1 109.50000 418.400000
8886 14299 9442 1 109.50000 418.400000
8886 14299 9443 1 109.50000 418.400000
9442 14299 9443 1 109.50000 418.400000
3042 14300 7664 1 109.50000 418.400000
3042 14300 7726 1 109.50000 418.400000
3042 14300 9444 1 109.50000 418.400000
7664 14300 7726 1 109.50000 418.400000
7664 14300 9444 1 109.50000 418.400000
7726 14300 9444 1 109.50000 418.400000
9227 14301 9445 1 109.50000 418.400000
9227 14301 9446 1 109.50000 418.400000
9227 14301 9447 1 109.50000 418.400000
9445 14301 9446 1 109.50000 418.400000
9445 14301 9447 1 109.50000 418.400000
9446 14301 9447 1 109.50000 418.400000
6726 14302 9448 1 109.50000 418.400000
6726 14302 9449 1 109.50000 418.400000
6726 14302 9450 1 109.50000 418.400000
9448 14302 9449 1 109.50000 418.400000
9448 14302 9450 1 109.50000 418.400000
9449 14302 9450 1 109.50000 418.400000
2968 14303 7698 1 109.50000 418.400000
2968 14303 8410 1 109.50000 418.400000
2968 14303 9451 1 109.50000 418.400000
7698 14303 8410 1 109.50000 418.400000
7698 14303 9451 1 109.50000 418.400000
8410 14303 9451 1 109.50000 418.400000
6608 14304 7332 1 109.50000 418.400000
6608 14304 9453 1 109.50000 418.400000
6608 14304 9454 1 109.50000 418.400000
7332 14304 9453 1 109.50000 418.400000
7332 14304 9454 1 109.50000 418.400000
9453 14304 9454 1 109.50000 418.400000
1429 14305 5558 1 109.50000 418.400000
1429 14305 7840 1 109.50000 418.400000
1429 14305 9455 1 109.50000 418.400000
5558 14305 7840 1 109.50000 418.400000
5558 14305 9455 1 109.50000 418.400000
7840 14305 9455 1 109.50000 418.400000
9102 14306 9282 1 109.50000 418.400000
9102 14306 9412 1 109.50000 418.400000
9102 14306 9457 1 109.50000 418.400000
9282 14306 9412 1 109.50000 418.400000
9282 14306 9457 1 109.50000 418.400000
9412 14306 9457 1 109.50000 418.400000
4008 14307 8340 1 109.50000 418.400000
4008 14307 9459 1 109.50000 418.400000
4008 14307 9460 1 109.50000 418.400000
8340 14307 9459 1 109.50000 418.400000
8340 14307 9460 1 109.50000 418.400000
9459 14307 9460 1 109.50000 418.400000
890 14308 9461 1 109.50000 418.400000
890 14308 9462 1 109.50000 418.400000
890 14308 9463 1 109.50000 418.400000
9461 14308 9462 1 109.50000 418.400000
9461 14308 9463 1 109.50000 418.400000
9462 14308 9463 1 109.50000 418.400000
1658 14309 5822 1 109.50000 418.400000
1658 14309 8428 1 109.50000 418.400000
1658 14309 9466 1 109.50000 418.400000
5822 14309 8428 1 109.50000 418.400000
5822 14309 9466 1 109.50000 418.400000
8428 14309 9466 1 109.50000 418.400000
3126 14310 7774 1 109.50000 418.400000
3126 14310 9467 1 109.50000 418.400000
3126 14310 9468 1 109.50000 418.400000
7774 14310 9467 1 109.50000 418.400000
7774 14310 9468 1 109.50000 418.400000
9467 14310 9468 1 109.50000 418.400000
4344 14311 9469 1 109.50000 418.400000
4344 14311 9470 1 109.50000 418.400000
4344 14311 9471 1 109.50000 418.400000
9469 14311 9470 1 109.50000 418.400000
9469 14311 9471 1 109.50000 418.400000
9470 14311 9471 1 109.50000 418.400000
5169 14312 7083 1 109.50000 418.400000
5169 14312 8810 1 109.50000 418.400000
5169 14312 9187 1 109.50000 418.400000
7083 14312 8810 1 109.50000 418.400000
7083 14312 9187 1 109.50000 418.400000
8810 14312 9187 1 109.50000 418.400000
343 14313 2170 1 109.50000 418.400000
343 14313 6713 1 109.50000 418.400000
343 14313 9472 1 109.50000 418.400000
2170 14313 6713 1 109.50000 418.400000
2170 14313 9472 1 109.50000 418.400000
6713 14313 9472 1 109.50000 418.400000
1453 14314 9364 1 109.50000 418.400000
1453 14314 9473 1 109.50000 418.400000
1453 14314 9474 1 109.50000 418.400000
9364 14314 9473 1 109.50000 418.400000
9364 14314 9474 1 109.50000 418.400000
9473 14314 9474 1 109.50000 418.400000
6320 14315 9475 1 109.50000 418.400000
6320 14315 9476 1 109.50000 418.400000
6320 14315 9477 1 109.50000 418.400000
9475 14315 9476 1 109.50000 418.400000
9475 14315 9477 1 109.50000 418.400000
9476 14315 9477 1 109.50000 418.400000
308 14316 4996 1 109.50000 418.400000
308 14316 7456 1 109.50000 418.400000
308 14316 9478 1 109.50000 418.400000
4996 14316 7456 1 109.50000 418.400000
4996 14316 9478 1 109.50000 418.400000
7456 14316 9478 1 109.50000 418.400000
621 14317 5628 1 109.50000 418.400000
621 14317 9479 1 109.50000 418.400000
621 14317 9480 1 109.50000 418.400000
5628 14317 9479 1 109.50000 418.400000
5628 14317 9480 1 109.50000 418.400000
9479 14317 9480 1 109.50000 418.400000
2570 14318 5079 1 109.50000 418.400000
2570 14318 6736 1 109.50000 418.400000
2570 14318 9481 1 109.50000 418.400000
5079 14318 6736 1 109.50000 418.400000
5079 14318 9481 1 109.50000 418.400000
6736 14318 9481 1 109.50000 418.400000
6413 14319 6665 1 109.50000 418.400000
6413 14319 7234 1 109.50000 418.400000
6413 14319 9482 1 109.50000 418.400000
6665 14319 7234 1 109.50000 418.400000
6665 14319 9482 1 109.50000 418.400000
7234 14319 9482 1 109.50000 418.400000
1540 14320 2111 1 109.50000 418.400000
1540 14320 7620 1 109.50000 418.400000
1540 14320 9483 1 109.50000 418.400000
2111 14320 7620 1 109.50000 418.400000
2111 14320 9483 1 109.50000 418.400000
7620 14320 9483 1 109.50000 418.400000
485 14321 8616 1 109.50000 418.400000
485 14321 9383 1 109.50000 418.400000
485 14321 9484 1 109.50000 418.400000
8616 14321 9383 1 109.50000 418.400000
8616 14321 9484 1 109.50000 418.400000
9383 14321 9484 1 109.50000 418.400000
3896 14322 3977 1 109.50000 418.400000
3896 14322 8002 1 109.50000 418.400000
3896 14322 9487 1 109.50000 418.400000
3977 14322 8002 1 109.50000 418.400000
3977 14322 9487 1 109.50000 418.400000
8002 14322 9487 1 109.50000 418.400000
1067 14323 8957 1 109.50000 418.400000
1067 14323 9488 1 109.50000 418.400000
1067 14323 9489 1 109.50000 418.400000
8957 14323 9488 1 109.50000 418.400000
8957 14323 9489 1 109.50000 418.400000
9488 14323 9489 1 109.50000 418.400000
152 14324 8297 1 109.50000 418.400000
152 14324 9490 1 109.50000 418.400000
152 14324 9491 1 109.50000 418.400000
8297 14324 9490 1 109.50000 418.400000
8297 14324 9491 1 109.50000 418.400000
9490 14324 9491 1 109.50000 418.400000
1318 14325 8774 1 109.50000 418.400000
1318 14325 8842 1 109.50000 418.400000
1318 14325 9493 1 109.50000 418.400000
8774 14325 8842 1 109.50000 418.400000
8774 14325 9493 1 109.50000 418.400000
8842 14325 9493 1 109.50000 418.400000
5009 14326 9057 1 109.50000 418.400000
5009 14326 9452 1 109.50000 418.400000
5009 14326 9494 1 109.50000 418.400000
9057 14326 9452 1 109.50000 418.400000
9057 14326 9494 1 109.50000 418.400000
9452 14326 9494 1 109.50000 418.400000
2425 14327 3218 1 109.50000 418.400000
2425 14327 7468 1 109.50000 418.400000
2425 14327 9495 1 109.50000 418.400000
3218 14327 7468 1 109.50000 418.400000
3218 14327 9495 1 109.50000 418.400000
7468 14327 9495 1 109.50000 418.400000
1899 14328 7273 1 109.50000 418.400000
1899 14328 7591 1 109.50000 418.400000
1899 14328 9496 1 109.50000 418.400000
7273 14328 7591 1 109.50000 418.400000
7273 14328 9496 1 109.50000 418.400000
7591 14328 9496 1 109.50000 418.400000
7444 14329 8632 1 109.50000 418.400000
7444 14329 9497 1 109.50000 418.400000
7444 14329 9498 1 109.50000 418.400000
8632 14329 9497 1 109.50000 418.400000
8632 14329 9498 1 109.50000 418.400000
9497 14329 9498 1 109.50000 418.400000
3376 14330 6836 1 109.50000 418.400000
3376 14330 6837 1 109.50000 418.400000
3376 14330 9499 1 109.50000 418.400000
6836 14330 6837 1 109.50000 418.400000
6836 14330 9499 1 109.50000 418.400000
6837 14330 9499 1 109.50000 418.400000
7567 14331 7568 1 109.50000 418.400000
7567 14331 9230 1 109.50000 418.400000
7567 14331 11245 1 109.50000 418.400000
7568 14331 9230 1 109.50000 418.400000
7568 14331 11245 1 109.50000 418.400000
9230 14331 11245 1 109.50000 418.400000
5488 14332 9256 1 109.50000 418.400000
5488 14332 9501 1 109.50000 418.400000
5488 14332 9502 1 109.50000 418.400000
9256 14332 9501 1 109.50000 418.400000
9256 14332 9502 1 109.50000 418.400000
9501 14332 9502 1 109.50000 418.400000
2330 14333 2332 1 109.50000 418.400000
2330 14333 6201 1 109.50000 418.400000
2330 14333 11154 1 109.50000 418.400000
2332 14333 6201 1 109.50000 418.400000
2332 14333 11154 1 109.50000 418.400000
6201 14333 11154 1 109.50000 418.400000
2258 14334 6372 1 109.50000 418.400000
2258 14334 7595 1 109.50000 418.400000
2258 14334 9503 1 109.50000 418.400000
6372 14334 7595 1 109.50000 418.400000
6372 14334 9503 1 109.50000 418.400000
7595 14334 9503 1 109.50000 418.400000
2342 14335 2343 1 109.50000 418.400000
2342 14335 4493 1 109.50000 418.400000
2342 14335 9504 1 109.50000 418.400000
2343 14335 4493 1 109.50000 418.400000
2343 14335 9504 1 109.50000 418.400000
4493 14335 9504 1 109.50000 418.400000
1557 14336 4114 1 109.50000 418.400000
1557 14336 9507 1 109.50000 418.400000
1557 14336 9508 1 109.50000 418.400000
4114 14336 9507 1 109.50000 418.400000
4114 14336 9508 1 109.50000 418.400000
9507 14336 9508 1 109.50000 418.400000
4000 14337 5398 1 109.50000 418.400000
4000 14337 7573 1 109.50000 418.400000
4000 14337 9509 1 109.50000 418.400000
5398 14337 7573 1 109.50000 418.400000
5398 14337 9509 1 109.50000 418.400000
7573 14337 9509 1 109.50000 418.400000
4495 14338 4496 1 109.50000 418.400000
4495 14338 9511 1 109.50000 418.400000
4495 14338 9512 1 109.50000 418.400000
4496 14338 9511 1 109.50000 418.400000
4496 14338 9512 1 109.50000 418.400000
9511 14338 9512 1 109.50000 418.400000
3354 14339 3897 1 109.50000 418.400000
3354 14339 8324 1 109.50000 418.400000
3354 14339 8726 1 109.50000 418.400000
3897 14339 8324 1 109.50000 418.400000
3897 14339 8726 1 109.50000 418.400000
8324 14339 8726 1 109.50000 418.400000
9513 14340 9514 1 109.50000 418.400000
9513 14340 9515 1 109.50000 418.400000
9513 14340 9516 1 109.50000 418.400000
9514 14340 9515 1 109.50000 418.400000
9514 14340 9516 1 109.50000 418.400000
9515 14340 9516 1 109.50000 418.400000
2894 14341 2895 1 109.50000 418.400000
2894 14341 5331 1 109.50000 418.400000
2894 14341 6124 1 109.50000 418.400000
2895 14341 5331 1 109.50000 418.400000
2895 14341 6124 1 109.50000 418.400000
5331 14341 6124 1 109.50000 418.400000
3992 14342 6412 1 109.50000 418.400000
3992 14342 7243 1 109.50000 418.400000
3992 14342 9518 1 109.50000 418.400000
6412 14342 7243 1 109.50000 418.400000
6412 14342 9518 1 109.50000 418.400000
7243 14342 9518 1 109.50000 418.400000
578 14343 4001 1 109.50000 418.400000
578 14343 6675 1 109.50000 418.400000
578 14343 9519 1 109.50000 418.400000
4001 14343 6675 1 109.50000 418.400000
4001 14343 9519 1 109.50000 418.400000
6675 14343 9519 1 109.50000 418.400000
2762 14344 4633 1 109.50000 418.400000
2762 14344 7747 1 109.50000 418.400000
2762 14344 9521 1 109.50000 418.400000
4633 14344 7747 1 109.50000 418.400000
4633 14344 9521 1 109.50000 418.400000
7747 14344 9521 1 109.50000 418.400000
3933 14345 4850 1 109.50000 418.400000
3933 14345 5749 1 109.50000 418.400000
3933 14345 9522 1 109.50000 418.400000
4850 14345 5749 1 109.50000 418.400000
4850 14345 9522 1 109.50000 418.400000
5749 14345 9522 1 109.50000 418.400000
294 14346 6669 1 109.50000 418.400000
294 14346 9523 1 109.50000 418.400000
294 14346 9524 1 109.50000 418.400000
6669 14346 9523 1 109.50000 418.400000
6669 14346 9524 1 109.50000 418.400000
9523 14346 9524 1 109.50000 418.400000
4540 14347 8161 1 109.50000 418.400000
4540 14347 8300 1 109.50000 418.400000
4540 14347 9525 1 109.50000 418.400000
8161 14347 8300 1 109.50000 418.400000
8161 14347 9525 1 109.50000 418.400000
8300 14347 9525 1 109.50000 418.400000
3874 14348 9390 1 109.50000 418.400000
3874 14348 9400 1 109.50000 418.400000
3874 14348 9501 1 109.50000 418.400000
9390 14348 9400 1 109.50000 418.400000
9390 14348 9501 1 109.50000 418.400000
9400 14348 9501 1 109.50000 418.400000
1068 14349 1527 1 109.50000 418.400000
1068 14349 9527 1 109.50000 418.400000
1068 14349 9528 1 109.50000 418.400000
1527 14349 9527 1 109.50000 418.400000
1527 14349 9528 1 109.50000 418.400000
9527 14349 9528 1 109.50000 418.400000
8766 14350 9529 1 109.50000 418.400000
8766 14350 9530 1 109.50000 418.400000
8766 14350 9531 1 109.50000 418.400000
9529 14350 9530 1 109.50000 418.400000
9529 14350 9531 1 109.50000 418.400000
9530 14350 9531 1 109.50000 418.400000
1523 14351 7087 1 109.50000 418.400000
1523 14351 9533 1 109.50000 418.400000
1523 14351 9534 1 109.50000 418.400000
7087 14351 9533 1 109.50000 418.400000
7087 14351 9534 1 109.50000 418.400000
9533 14351 9534 1 109.50000 418.400000
589 14352 8784 1 109.50000 418.400000
589 14352 9426 1 109.50000 418.400000
589 14352 9535 1 109.50000 418.400000
8784 14352 9426 1 109.50000 418.400000
8784 14352 9535 1 109.50000 418.400000
9426 14352 9535 1 109.50000 418.400000
648 14353 3438 1 109.50000 418.400000
648 14353 9536 1 109.50000 418.400000
648 14353 9537 1 109.50000 418.400000
3438 14353 9536 1 109.50000 418.400000
3438 14353 9537 1 109.50000 418.400000
9536 14353 9537 1 109.50000 418.400000
3571 14354 7100 1 109.50000 418.400000
3571 14354 9538 1 109.50000 418.400000
3571 14354 9539 1 109.50000 418.400000
7100 14354 9538 1 109.50000 418.400000
7100 14354 9539 1 109.50000 418.400000
9538 14354 9539 1 109.50000 418.400000
6598 14355 7080 1 109.50000 418.400000
6598 14355 7082 1 109.50000 418.400000
6598 14355 9540 1 109.50000 418.400000
7080 14355 7082 1 109.50000 418.400000
7080 14355 9540 1 109.50000 418.400000
7082 14355 9540 1 109.50000 418.400000
9541 14356 9542 1 109.50000 418.400000
9541 14356 9543 1 109.50000 418.400000
9541 14356 9544 1 109.50000 418.400000
9542 14356 9543 1 109.50000 418.400000
9542 14356 9544 1 109.50000 418.400000
9543 14356 9544 1 109.50000 418.400000
3420 14357 3820 1 109.50000 418.400000
3420 14357 7973 1 109.50000 418.400000
3420 14357 9545 1 109.50000 418.400000
3820 14357 7973 1 109.50000 418.400000
3820 14357 9545 1 109.50000 418.400000
7973 14357 9545 1 109.50000 418.400000
962 14358 1012 1 109.50000 418.400000
962 14358 8744 1 109.50000 418.400000
962 14358 9546 1 109.50000 418.400000
1012 14358 8744 1 109.50000 418.400000
1012 14358 9546 1 109.50000 418.400000
8744 14358 9546 1 109.50000 418.400000
6658 14359 6825 1 109.50000 418.400000
6658 14359 7098 1 109.50000 418.400000
6658 14359 8665 1 109.50000 418.400000
6825 14359 7098 1 109.50000 418.400000
6825 14359 8665 1 109.50000 418.400000
7098 14359 8665 1 109.50000 418.400000
2485 14360 4711 1 109.50000 418.400000
2485 14360 9550 1 109.50000 418.400000
2485 14360 9551 1 109.50000 418.400000
4711 14360 9550 1 109.50000 418.400000
4711 14360 9551 1 109.50000 418.400000
9550 14360 9551 1 109.50000 418.400000
8009 14361 9552 1 109.50000 418.400000
8009 14361 9553 1 109.50000 418.400000
8009 14361 9554 1 109.50000 418.400000
9552 14361 9553 1 109.50000 418.400000
9552 14361 9554 1 109.50000 418.400000
9553 14361 9554 1 109.50000 418.400000
5295 14362 9015 1 109.50000 418.400000
5295 14362 9016 1 109.50000 418.400000
5295 14362 9555 1 109.50000 418.400000
9015 14362 9016 1 109.50000 418.400000
9015 14362 9555 1 109.50000 418.400000
9016 14362 9555 1 109.50000 418.400000
944 14363 4758 1 109.50000 418.400000
944 14363 9556 1 109.50000 418.400000
944 14363 9557 1 109.50000 418.400000
4758 14363 9556 1 109.50000 418.400000
4758 14363 9557 1 109.50000 418.400000
9556 14363 9557 1 109.50000 418.400000
6862 14364 7196 1 109.50000 418.400000
6862 14364 9559 1 109.50000 418.400000
6862 14364 9560 1 109.50000 418.400000
7196 14364 9559 1 109.50000 418.400000
7196 14364 9560 1 109.50000 418.400000
9559 14364 9560 1 109.50000 418.400000
2754 14365 2756 1 109.50000 418.400000
2754 14365 9561 1 109.50000 418.400000
2754 14365 9562 1 109.50000 418.400000
2756 14365 9561 1 109.50000 418.400000
2756 14365 9562 1 109.50000 418.400000
9561 14365 9562 1 109.50000 418.400000
3793 14366 6976 1 109.50000 418.400000
3793 14366 8823 1 109.50000 418.400000
3793 14366 9564 1 109.50000 418.400000
6976 14366 8823 1 109.50000 418.400000
6976 14366 9564 1 109.50000 418.400000
8823 14366 9564 1 109.50000 418.400000
7168 14367 9144 1 109.50000 418.400000
7168 14367 9565 1 109.50000 418.400000
7168 14367 9566 1 109.50000 418.400000
9144 14367 9565 1 109.50000 418.400000
9144 14367 9566 1 109.50000 418.400000
9565 14367 9566 1 109.50000 418.400000
594 14368 2960 1 109.50000 418.400000
594 14368 6107 1 109.50000 418.400000
594 14368 9432 1 109.50000 418.400000
2960 14368 6107 1 109.50000 418.400000
2960 14368 9432 1 109.50000 418.400000
6107 14368 9432 1 109.50000 418.400000
8899 14369 9184 1 109.50000 418.400000
8899 14369 9569 1 109.50000 418.400000
8899 14369 9570 1 109.50000 418.400000
9184 14369 9569 1 109.50000 418.400000
9184 14369 9570 1 109.50000 418.400000
9569 14369 9570 1 109.50000 418.400000
2265 14370 5723 1 109.50000 418.400000
2265 14370 8306 1 109.50000 418.400000
2265 14370 9571 1 109.50000 418.400000
5723 14370 8306 1 109.50000 418.400000
5723 14370 9571 1 109.50000 418.400000
8306 14370 9571 1 109.50000 418.400000
2835 14371 6895 1 109.50000 418.400000
2835 14371 8323 1 109.50000 418.400000
2835 14371 9487 1 109.50000 418.400000
6895 14371 8323 1 109.50000 418.400000
6895 14371 9487 1 109.50000 418.400000
8323 14371 9487 1 109.50000 418.400000
1887 14372 8132 1 109.50000 418.400000
1887 14372 9513 1 109.50000 418.400000
1887 14372 9572 1 109.50000 418.400000
8132 14372 9513 1 109.50000 418.400000
8132 14372 9572 1 109.50000 418.400000
9513 14372 9572 1 109.50000 418.400000
1380 14373 6145 1 109.50000 418.400000
1380 14373 8878 1 109.50000 418.400000
1380 14373 9573 1 109.50000 418.400000
6145 14373 8878 1 109.50000 418.400000
6145 14373 9573 1 109.50000 418.400000
8878 14373 9573 1 109.50000 418.400000
6649 14374 8232 1 109.50000 418.400000
6649 14374 9574 1 109.50000 418.400000
6649 14374 9575 1 109.50000 418.400000
8232 14374 9574 1 109.50000 418.400000
8232 14374 9575 1 109.50000 418.400000
9574 14374 9575 1 109.50000 418.400000
3928 14375 4865 1 109.50000 418.400000
3928 14375 9576 1 109.50000 418.400000
3928 14375 9577 1 109.50000 418.400000
4865 14375 9576 1 109.50000 418.400000
4865 14375 9577 1 109.50000 418.400000
9576 14375 9577 1 109.50000 418.400000
1542 14376 1707 1 109.50000 418.400000
1542 14376 6917 1 109.50000 418.400000
1542 14376 9578 1 109.50000 418.400000
1707 14376 6917 1 109.50000 418.400000
1707 14376 9578 1 109.50000 418.400000
6917 14376 9578 1 109.50000 418.400000
1051 14377 3068 1 109.50000 418.400000
1051 14377 3356 1 109.50000 418.400000
1051 14377 9579 1 109.50000 418.400000
3068 14377 3356 1 109.50000 418.400000
3068 14377 9579 1 109.50000 418.400000
3356 14377 9579 1 109.50000 418.400000
3981 14378 6331 1 109.50000 418.400000
3981 14378 7906 1 109.50000 418.400000
3981 14378 9580 1 109.50000 418.400000
6331 14378 7906 1 109.50000 418.400000
6331 14378 9580 1 109.50000 418.400000
7906 14378 9580 1 109.50000 418.400000
3602 14379 9581 1 109.50000 418.400000
3602 14379 9582 1 109.50000 418.400000
3602 14379 9583 1 109.50000 418.400000
9581 14379 9582 1 109.50000 418.400000
9581 14379 9583 1 109.50000 418.400000
9582 14379 9583 1 109.50000 418.400000
2734 14380 3669 1 109.50000 418.400000
2734 14380 7848 1 109.50000 418.400000
2734 14380 8593 1 109.50000 418.400000
3669 14380 7848 1 109.50000 418.400000
3669 14380 8593 1 109.50000 418.400000
7848 14380 8593 1 109.50000 418.400000
2293 14381 6511 1 109.50000 418.400000
2293 14381 8684 1 109.50000 418.400000
2293 14381 9318 1 109.50000 418.400000
6511 14381 8684 1 109.50000 418.400000
6511 14381 9318 1 109.50000 418.400000
8684 14381 9318 1 109.50000 418.400000
917 14382 8568 1 109.50000 418.400000
917 14382 9584 1 109.50000 418.400000
917 14382 9585 1 109.50000 418.400000
8568 14382 9584 1 109.50000 418.400000
8568 14382 9585 1 109.50000 418.400000
9584 14382 9585 1 109.50000 418.400000
2008 14383 2185 1 109.50000 418.400000
2008 14383 2846 1 109.50000 418.400000
2008 14383 9586 1 109.50000 418.400000
2185 14383 2846 1 109.50000 418.400000
2185 14383 9586 1 109.50000 418.400000
2846 14383 9586 1 109.50000 418.400000
166 14384 5065 1 109.50000 418.400000
166 14384 5645 1 109.50000 418.400000
166 14384 9587 1 109.50000 418.400000
5065 14384 5645 1 109.50000 418.400000
5065 14384 9587 1 109.50000 418.400000
5645 14384 9587 1 109.50000 418.400000
9000 14385 9588 1 109.50000 418.400000
9000 14385 9589 1 109.50000 418.400000
9000 14385 9590 1 109.50000 418.400000
9588 14385 9589 1 109.50000 418.400000
9588 14385 9590 1 109.50000 418.400000
9589 14385 9590 1 109.50000 418.400000
968 14386 3429 1 109.50000 418.400000
968 14386 6790 1 109.50000 418.400000
968 14386 9006 1 109.50000 418.400000
3429 14386 6790 1 109.50000 418.400000
3429 14386 9006 1 109.50000 418.400000
6790 14386 9006 1 109.50000 418.400000
1806 14387 5280 1 109.50000 418.400000
1806 14387 9591 1 109.50000 418.400000
1806 14387 9592 1 109.50000 418.400000
5280 14387 9591 1 109.50000 418.400000
5280 14387 9592 1 109.50000 418.400000
9591 14387 9592 1 109.50000 418.400000
7717 14388 8973 1 109.50000 418.400000
7717 14388 9593 1 109.50000 418.400000
7717 14388 9594 1 109.50000 418.400000
8973 14388 9593 1 109.50000 418.400000
8973 14388 9594 1 109.50000 418.400000
9593 14388 9594 1 109.50000 418.400000
3382 14389 8422 1 109.50000 418.400000
3382 14389 9595 1 109.50000 418.400000
3382 14389 9596 1 109.50000 418.400000
8422 14389 9595 1 109.50000 418.400000
8422 14389 9596 1 109.50000 418.400000
9595 14389 9596 1 109.50000 418.400000
1413 14390 8061 1 109.50000 418.400000
1413 14390 9598 1 109.50000 418.400000
1413 14390 9599 1 109.50000 418.400000
8061 14390 9598 1 109.50000 418.400000
8061 14390 9599 1 109.50000 418.400000
9598 14390 9599 1 109.50000 418.400000
109 14391 4885 1 109.50000 418.400000
109 14391 8862 1 109.50000 418.400000
109 14391 9600 1 109.50000 418.400000
4885 14391 8862 1 109.50000 418.400000
4885 14391 9600 1 109.50000 418.400000
8862 14391 9600 1 109.50000 418.400000
3417 14392 7460 1 109.50000 418.400000
3417 14392 9034 1 109.50000 418.400000
3417 14392 9603 1 109.50000 418.400000
7460 14392 9034 1 109.50000 418.400000
7460 14392 9603 1 109.50000 418.400000
9034 14392 9603 1 109.50000 418.400000
1464 14393 7570 1 109.50000 418.400000
1464 14393 9604 1 109.50000 418.400000
1464 14393 9605 1 109.50000 418.400000
7570 14393 9604 1 109.50000 418.400000
7570 14393 9605 1 109.50000 418.400000
9604 14393 9605 1 109.50000 418.400000
4408 14394 7875 1 109.50000 418.400000
4408 14394 9607 1 109.50000 418.400000
4408 14394 9608 1 109.50000 418.400000
7875 14394 9607 1 109.50000 418.400000
7875 14394 9608 1 109.50000 418.400000
9607 14394 9608 1 109.50000 418.400000
9609 14395 9969 1 109.50000 418.400000
9609 14395 11054 1 109.50000 418.400000
9609 14395 11055 1 109.50000 418.400000
9969 14395 11054 1 109.50000 418.400000
9969 14395 11055 1 109.50000 418.400000
11054 14395 11055 1 109.50000 418.400000
3454 14396 8792 1 109.50000 418.400000
3454 14396 9612 1 109.50000 418.400000
3454 14396 9613 1 109.50000 418.400000
8792 14396 9612 1 109.50000 418.400000
8792 14396 9613 1 109.50000 418.400000
9612 14396 9613 1 109.50000 418.400000
1646 14397 4088 1 109.50000 418.400000
1646 14397 9614 1 109.50000 418.400000
1646 14397 9615 1 109.50000 418.400000
4088 14397 9614 1 109.50000 418.400000
4088 14397 9615 1 109.50000 418.400000
9614 14397 9615 1 109.50000 418.400000
5764 14398 6274 1 109.50000 418.400000
5764 14398 6275 1 109.50000 418.400000
5764 14398 9511 1 109.50000 418.400000
6274 14398 6275 1 109.50000 418.400000
6274 14398 9511 1 109.50000 418.400000
6275 14398 9511 1 109.50000 418.400000
4581 14399 8521 1 109.50000 418.400000
4581 14399 9616 1 109.50000 418.400000
4581 14399 9617 1 109.50000 418.400000
8521 14399 9616 1 109.50000 418.400000
8521 14399 9617 1 109.50000 418.400000
9616 14399 9617 1 109.50000 418.400000
714 14400 715 1 109.50000 418.400000
714 14400 8692 1 109.50000 418.400000
714 14400 9618 1 109.50000 418.400000
715 14400 8692 1 109.50000 418.400000
715 14400 9618 1 109.50000 418.400000
8692 14400 9618 1 109.50000 418.400000
506 14401 2172 1 109.50000 418.400000
506 14401 2718 1 109.50000 418.400000
506 14401 9619 1 109.50000 418.400000
2172 14401 2718 1 109.50000 418.400000
2172 14401 9619 1 109.50000 418.400000
2718 14401 9619 1 109.50000 418.400000
81 14402 1307 1 109.50000 418.400000
81 14402 8914 1 109.50000 418.400000
81 14402 9620 1 109.50000 418.400000
1307 14402 8914 1 109.50000 418.400000
1307 14402 9620 1 109.50000 418.400000
8914 14402 9620 1 109.50000 418.400000
2922 14403 7019 1 109.50000 418.400000
2922 14403 7204 1 109.50000 418.400000
2922 14403 7534 1 109.50000 418.400000
7019 14403 7204 1 109.50000 418.400000
7019 14403 7534 1 109.50000 418.400000
7204 14403 7534 1 109.50000 418.400000
583 14404 3089 1 109.50000 418.400000
583 14404 3188 1 109.50000 418.400000
583 14404 5135 1 109.50000 418.400000
3089 14404 3188 1 109.50000 418.400000
3089 14404 5135 1 109.50000 418.400000
3188 14404 5135 1 109.50000 418.400000
4068 14405 7124 1 109.50000 418.400000
4068 14405 7126 1 109.50000 418.400000
4068 14405 7374 1 109.50000 418.400000
7124 14405 7126 1 109.50000 418.400000
7124 14405 7374 1 109.50000 418.400000
7126 14405 7374 1 109.50000 418.400000
1032 14406 9623 1 109.50000 418.400000
1032 14406 9624 1 109.50000 418.400000
1032 14406 9625 1 109.50000 418.400000
9623 14406 9624 1 109.50000 418.400000
9623 14406 9625 1 109.50000 418.400000
9624 14406 9625 1 109.50000 418.400000
8215 14407 8856 1 109.50000 418.400000
8215 14407 8910 1 109.50000 418.400000
8215 14407 9137 1 109.50000 418.400000
8856 14407 8910 1 109.50000 418.400000
8856 14407 9137 1 109.50000 418.400000
8910 14407 9137 1 109.50000 418.400000
9626 14408 9627 1 109.50000 418.400000
9626 14408 9628 1 109.50000 418.400000
9626 14408 9629 1 109.50000 418.400000
9627 14408 9628 1 109.50000 418.400000
9627 14408 9629 1 109.50000 418.400000
9628 14408 9629 1 109.50000 418.400000
1714 14409 6756 1 109.50000 418.400000
1714 14409 9630 1 109.50000 418.400000
1714 14409 9631 1 109.50000 418.400000
6756 14409 9630 1 109.50000 418.400000
6756 14409 9631 1 109.50000 418.400000
9630 14409 9631 1 109.50000 418.400000
2755 14410 9632 1 109.50000 418.400000
2755 14410 9634 1 109.50000 418.400000
2755 14410 10819 1 109.50000 418.400000
9632 14410 9634 1 109.50000 418.400000
9632 14410 10819 1 109.50000 418.400000
9634 14410 10819 1 109.50000 418.400000
977 14411 2450 1 109.50000 418.400000
977 14411 9635 1 109.50000 418.400000
977 14411 9636 1 109.50000 418.400000
2450 14411 9635 1 109.50000 418.400000
2450 14411 9636 1 109.50000 418.400000
9635 14411 9636 1 109.50000 418.400000
8181 14412 8463 1 109.50000 418.400000
8181 14412 9454 1 109.50000 418.400000
8181 14412 9637 1 109.50000 418.400000
8463 14412 9454 1 109.50000 418.400000
8463 14412 9637 1 109.50000 418.400000
9454 14412 9637 1 109.50000 418.400000
8997 14413 9235 1 109.50000 418.400000
8997 14413 9638 1 109.50000 418.400000
8997 14413 9639 1 109.50000 418.400000
9235 14413 9638 1 109.50000 418.400000
9235 14413 9639 1 109.50000 418.400000
9638 14413 9639 1 109.50000 418.400000
772 14414 7260 1 109.50000 418.400000
772 14414 7850 1 109.50000 418.400000
772 14414 9640 1 109.50000 418.400000
7260 14414 7850 1 109.50000 418.400000
7260 14414 9640 1 109.50000 418.400000
7850 14414 9640 1 109.50000 418.400000
3435 14415 5990 1 109.50000 418.400000
3435 14415 8703 1 109.50000 418.400000
3435 14415 9641 1 109.50000 418.400000
5990 14415 8703 1 109.50000 418.400000
5990 14415 9641 1 109.50000 418.400000
8703 14415 9641 1 109.50000 418.400000
9140 14416 9288 1 109.50000 418.400000
9140 14416 9642 1 109.50000 418.400000
9140 14416 9643 1 109.50000 418.400000
9288 14416 9642 1 109.50000 418.400000
9288 14416 9643 1 109.50000 418.400000
9642 14416 9643 1 109.50000 418.400000
3913 14417 7102 1 109.50000 418.400000
3913 14417 9646 1 109.50000 418.400000
3913 14417 9647 1 109.50000 418.400000
7102 14417 9646 1 109.50000 418.400000
7102 14417 9647 1 109.50000 418.400000
9646 14417 9647 1 109.50000 418.400000
3458 14418 4019 1 109.50000 418.400000
3458 14418 4390 1 109.50000 418.400000
3458 14418 5372 1 109.50000 418.400000
4019 14418 4390 1 109.50000 418.400000
4019 14418 5372 1 109.50000 418.400000
4390 14418 5372 1 109.50000 418.400000
6017 14419 9649 1 109.50000 418.400000
6017 14419 9650 1 109.50000 418.400000
6017 14419 9651 1 109.50000 418.400000
9649 14419 9650 1 109.50000 418.400000
9649 14419 9651 1 109.50000 418.400000
9650 14419 9651 1 109.50000 418.400000
84 14420 1388 1 109.50000 418.400000
84 14420 4400 1 109.50000 418.400000
84 14420 9652 1 109.50000 418.400000
1388 14420 4400 1 109.50000 418.400000
1388 14420 9652 1 109.50000 418.400000
4400 14420 9652 1 109.50000 418.400000
974 14421 4593 1 109.50000 418.400000
974 14421 6671 1 109.50000 418.400000
974 14421 9529 1 109.50000 418.400000
4593 14421 6671 1 109.50000 418.400000
4593 14421 9529 1 109.50000 418.400000
6671 14421 9529 1 109.50000 418.400000
905 14422 1534 1 109.50000 418.400000
905 14422 1719 1 109.50000 418.400000
905 14422 8768 1 109.50000 418.400000
1534 14422 1719 1 109.50000 418.400000
1534 14422 8768 1 109.50000 418.400000
1719 14422 8768 1 109.50000 418.400000
710 14423 3550 1 109.50000 418.400000
710 14423 8404 1 109.50000 418.400000
710 14423 9656 1 109.50000 418.400000
3550 14423 8404 1 109.50000 418.400000
3550 14423 9656 1 109.50000 418.400000
8404 14423 9656 1 109.50000 418.400000
605 14424 2683 1 109.50000 418.400000
605 14424 9657 1 109.50000 418.400000
605 14424 10521 1 109.50000 418.400000
2683 14424 9657 1 109.50000 418.400000
2683 14424 10521 1 109.50000 418.400000
9657 14424 10521 1 109.50000 418.400000
9521 14425 9658 1 109.50000 418.400000
9521 14425 9659 1 109.50000 418.400000
9521 14425 9660 1 109.50000 418.400000
9658 14425 9659 1 109.50000 418.400000
9658 14425 9660 1 109.50000 418.400000
9659 14425 9660 1 109.50000 418.400000
3769 14426 9661 1 109.50000 418.400000
3769 14426 9662 1 109.50000 418.400000
3769 14426 9663 1 109.50000 418.400000
9661 14426 9662 1 109.50000 418.400000
9661 14426 9663 1 109.50000 418.400000
9662 14426 9663 1 109.50000 418.400000
1629 14427 5897 1 109.50000 418.400000
1629 14427 9473 1 109.50000 418.400000
1629 14427 9664 1 109.50000 418.400000
5897 14427 9473 1 109.50000 418.400000
5897 14427 9664 1 109.50000 418.400000
9473 14427 9664 1 109.50000 418.400000
4808 14428 7485 1 109.50000 418.400000
4808 14428 9665 1 109.50000 418.400000
4808 14428 9666 1 109.50000 418.400000
7485 14428 9665 1 109.50000 418.400000
7485 14428 9666 1 109.50000 418.400000
9665 14428 9666 1 109.50000 418.400000
9667 14429 9668 1 109.50000 418.400000
9667 14429 9669 1 109.50000 418.400000
9667 14429 9670 1 109.50000 418.400000
9668 14429 9669 1 109.50000 418.400000
9668 14429 9670 1 109.50000 418.400000
9669 14429 9670 1 109.50000 418.400000
1745 14430 1975 1 109.50000 418.400000
1745 14430 8184 1 109.50000 418.400000
1745 14430 9671 1 109.50000 418.400000
1975 14430 8184 1 109.50000 418.400000
1975 14430 9671 1 109.50000 418.400000
8184 14430 9671 1 109.50000 418.400000
5152 14431 6367 1 109.50000 418.400000
5152 14431 7976 1 109.50000 418.400000
5152 14431 9674 1 109.50000 418.400000
6367 14431 7976 1 109.50000 418.400000
6367 14431 9674 1 109.50000 418.400000
7976 14431 9674 1 109.50000 418.400000
154 14432 9223 1 109.50000 418.400000
154 14432 9401 1 109.50000 418.400000
154 14432 9675 1 109.50000 418.400000
9223 14432 9401 1 109.50000 418.400000
9223 14432 9675 1 109.50000 418.400000
9401 14432 9675 1 109.50000 418.400000
768 14433 7118 1 109.50000 418.400000
768 14433 8137 1 109.50000 418.400000
768 14433 9676 1 109.50000 418.400000
7118 14433 8137 1 109.50000 418.400000
7118 14433 9676 1 109.50000 418.400000
8137 14433 9676 1 109.50000 418.400000
4586 14434 9677 1 109.50000 418.400000
4586 14434 9678 1 109.50000 418.400000
4586 14434 9679 1 109.50000 418.400000
9677 14434 9678 1 109.50000 418.400000
9677 14434 9679 1 109.50000 418.400000
9678 14434 9679 1 109.50000 418.400000
8465 14435 9680 1 109.50000 418.400000
8465 14435 9681 1 109.50000 418.400000
8465 14435 9682 1 109.50000 418.400000
9680 14435 9681 1 109.50000 418.400000
9680 14435 9682 1 109.50000 418.400000
9681 14435 9682 1 109.50000 418.400000
7632 14436 9131 1 109.50000 418.400000
7632 14436 9206 1 109.50000 418.400000
7632 14436 9684 1 109.50000 418.400000
9131 14436 9206 1 109.50000 418.400000
9131 14436 9684 1 109.50000 418.400000
9206 14436 9684 1 109.50000 418.400000
7139 14437 7146 1 109.50000 418.400000
7139 14437 9685 1 109.50000 418.400000
7139 14437 9686 1 109.50000 418.400000
7146 14437 9685 1 109.50000 418.400000
7146 14437 9686 1 109.50000 418.400000
9685 14437 9686 1 109.50000 418.400000
194 14438 3825 1 109.50000 418.400000
194 14438 3959 1 109.50000 418.400000
194 14438 9688 1 109.50000 418.400000
3825 14438 3959 1 109.50000 418.400000
3825 14438 9688 1 109.50000 418.400000
3959 14438 9688 1 109.50000 418.400000
5836 14439 5837 1 109.50000 418.400000
5836 14439 5838 1 109.50000 418.400000
5836 14439 9689 1 109.50000 418.400000
5837 14439 5838 1 109.50000 418.400000
5837 14439 9689 1 109.50000 418.400000
5838 14439 9689 1 109.50000 418.400000
1578 14440 2841 1 109.50000 418.400000
1578 14440 4140 1 109.50000 418.400000
1578 14440 9692 1 109.50000 418.400000
2841 14440 4140 1 109.50000 418.400000
2841 14440 9692 1 109.50000 418.400000
4140 14440 9692 1 109.50000 418.400000
5606 14441 5648 1 109.50000 418.400000
5606 14441 9299 1 109.50000 418.400000
5606 14441 9693 1 109.50000 418.400000
5648 14441 9299 1 109.50000 418.400000
5648 14441 9693 1 109.50000 418.400000
9299 14441 9693 1 109.50000 418.400000
5102 14442 9694 1 109.50000 418.400000
5102 14442 9695 1 109.50000 418.400000
5102 14442 10680 1 109.50000 418.400000
9694 14442 9695 1 109.50000 418.400000
9694 14442 10680 1 109.50000 418.400000
9695 14442 10680 1 109.50000 418.400000
846 14443 8240 1 109.50000 418.400000
846 14443 9696 1 109.50000 418.400000
846 14443 9697 1 109.50000 418.400000
8240 14443 9696 1 109.50000 418.400000
8240 14443 9697 1 109.50000 418.400000
9696 14443 9697 1 109.50000 418.400000
2458 14444 8915 1 109.50000 418.400000
2458 14444 9030 1 109.50000 418.400000
2458 14444 9698 1 109.50000 418.400000
8915 14444 9030 1 109.50000 418.400000
8915 14444 9698 1 109.50000 418.400000
9030 14444 9698 1 109.50000 418.400000
4509 14445 9699 1 109.50000 418.400000
4509 14445 9700 1 109.50000 418.400000
4509 14445 9701 1 109.50000 418.400000
9699 14445 9700 1 109.50000 418.400000
9699 14445 9701 1 109.50000 418.400000
9700 14445 9701 1 109.50000 418.400000
2361 14446 9702 1 109.50000 418.400000
2361 14446 9703 1 109.50000 418.400000
2361 14446 9704 1 109.50000 418.400000
9702 14446 9703 1 109.50000 418.400000
9702 14446 9704 1 109.50000 418.400000
9703 14446 9704 1 109.50000 418.400000
329 14447 8502 1 109.50000 418.400000
329 14447 9705 1 109.50000 418.400000
329 14447 9706 1 109.50000 418.400000
8502 14447 9705 1 109.50000 418.400000
8502 14447 9706 1 109.50000 418.400000
9705 14447 9706 1 109.50000 418.400000
7628 14448 7945 1 109.50000 418.400000
7628 14448 9708 1 109.50000 418.400000
7628 14448 10467 1 109.50000 418.400000
7945 14448 9708 1 109.50000 418.400000
7945 14448 10467 1 109.50000 418.400000
9708 14448 10467 1 109.50000 418.400000
3831 14449 6470 1 109.50000 418.400000
3831 14449 8834 1 109.50000 418.400000
3831 14449 9709 1 109.50000 418.400000
6470 14449 8834 1 109.50000 418.400000
6470 14449 9709 1 109.50000 418.400000
8834 14449 9709 1 109.50000 418.400000
3951 14450 9494 1 109.50000 418.400000
3951 14450 9710 1 109.50000 418.400000
3951 14450 9711 1 109.50000 418.400000
9494 14450 9710 1 109.50000 418.400000
9494 14450 9711 1 109.50000 418.400000
9710 14450 9711 1 109.50000 418.400000
7659 14451 9712 1 109.50000 418.400000
7659 14451 9713 1 109.50000 418.400000
7659 14451 10259 1 109.50000 418.400000
9712 14451 9713 1 109.50000 418.400000
9712 14451 10259 1 109.50000 418.400000
9713 14451 10259 1 109.50000 418.400000
5728 14452 9163 1 109.50000 418.400000
5728 14452 9714 1 109.50000 418.400000
5728 14452 9715 1 109.50000 418.400000
9163 14452 9714 1 109.50000 418.400000
9163 14452 9715 1 109.50000 418.400000
9714 14452 9715 1 109.50000 418.400000
3094 14453 5099 1 109.50000 418.400000
3094 14453 9716 1 109.50000 418.400000
3094 14453 9717 1 109.50000 418.400000
5099 14453 9716 1 109.50000 418.400000
5099 14453 9717 1 109.50000 418.400000
9716 14453 9717 1 109.50000 418.400000
844 14454 6717 1 109.50000 418.400000
844 14454 8526 1 109.50000 418.400000
844 14454 9718 1 109.50000 418.400000
6717 14454 8526 1 109.50000 418.400000
6717 14454 9718 1 109.50000 418.400000
8526 14454 9718 1 109.50000 418.400000
6226 14455 9719 1 109.50000 418.400000
6226 14455 9720 1 109.50000 418.400000
6226 14455 9721 1 109.50000 418.400000
9719 14455 9720 1 109.50000 418.400000
9719 14455 9721 1 109.50000 418.400000
9720 14455 9721 1 109.50000 418.400000
3104 14456 4081 1 109.50000 418.400000
3104 14456 7579 1 109.50000 418.400000
3104 14456 9298 1 109.50000 418.400000
4081 14456 7579 1 109.50000 418.400000
4081 14456 9298 1 109.50000 418.400000
7579 14456 9298 1 109.50000 418.400000
7133 14457 7899 1 109.50000 418.400000
7133 14457 9722 1 109.50000 418.400000
7133 14457 9723 1 109.50000 418.400000
7899 14457 9722 1 109.50000 418.400000
7899 14457 9723 1 109.50000 418.400000
9722 14457 9723 1 109.50000 418.400000
1043 14458 2382 1 109.50000 418.400000
1043 14458 9403 1 109.50000 418.400000
1043 14458 11186 1 109.50000 418.400000
2382 14458 9403 1 109.50000 418.400000
2382 14458 11186 1 109.50000 418.400000
9403 14458 11186 1 109.50000 418.400000
7707 14459 7721 1 109.50000 418.400000
7707 14459 7767 1 109.50000 418.400000
7707 14459 9724 1 109.50000 418.400000
7721 14459 7767 1 109.50000 418.400000
7721 14459 9724 1 109.50000 418.400000
7767 14459 9724 1 109.50000 418.400000
9037 14460 9437 1 109.50000 418.400000
9037 14460 9718 1 109.50000 418.400000
9037 14460 9725 1 109.50000 418.400000
9437 14460 9718 1 109.50000 418.400000
9437 14460 9725 1 109.50000 418.400000
9718 14460 9725 1 109.50000 418.400000
3323 14461 5935 1 109.50000 418.400000
3323 14461 8638 1 109.50000 418.400000
3323 14461 9726 1 109.50000 418.400000
5935 14461 8638 1 109.50000 418.400000
5935 14461 9726 1 109.50000 418.400000
8638 14461 9726 1 109.50000 418.400000
4261 14462 7346 1 109.50000 418.400000
4261 14462 9059 1 109.50000 418.400000
4261 14462 9728 1 109.50000 418.400000
7346 14462 9059 1 109.50000 418.400000
7346 14462 9728 1 109.50000 418.400000
9059 14462 9728 1 109.50000 418.400000
3465 14463 6839 1 109.50000 418.400000
3465 14463 9596 1 109.50000 418.400000
3465 14463 9730 1 109.50000 418.400000
6839 14463 9596 1 109.50000 418.400000
6839 14463 9730 1 109.50000 418.400000
9596 14463 9730 1 109.50000 418.400000
5905 14464 6873 1 109.50000 418.400000
5905 14464 9260 1 109.50000 418.400000
5905 14464 9702 1 109.50000 418.400000
6873 14464 9260 1 109.50000 418.400000
6873 14464 9702 1 109.50000 418.400000
9260 14464 9702 1 109.50000 418.400000
4121 14465 8086 1 109.50000 418.400000
4121 14465 8553 1 109.50000 418.400000
4121 14465 9731 1 109.50000 418.400000
8086 14465 8553 1 109.50000 418.400000
8086 14465 9731 1 109.50000 418.400000
8553 14465 9731 1 109.50000 418.400000
9732 14466 9733 1 109.50000 418.400000
9732 14466 9734 1 109.50000 418.400000
9732 14466 9735 1 109.50000 418.400000
9733 14466 9734 1 109.50000 418.400000
9733 14466 9735 1 109.50000 418.400000
9734 14466 9735 1 109.50000 418.400000
9351 14467 9736 1 109.50000 418.400000
9351 14467 9737 1 109.50000 418.400000
9351 14467 9738 1 109.50000 418.400000
9736 14467 9737 1 109.50000 418.400000
9736 14467 9738 1 109.50000 418.400000
9737 14467 9738 1 109.50000 418.400000
4134 14468 7739 1 109.50000 418.400000
4134 14468 8529 1 109.50000 418.400000
4134 14468 9739 1 109.50000 418.400000
7739 14468 8529 1 109.50000 418.400000
7739 14468 9739 1 109.50000 418.400000
8529 14468 9739 1 109.50000 418.400000
4177 14469 5759 1 109.50000 418.400000
4177 14469 5760 1 109.50000 418.400000
4177 14469 6978 1 109.50000 418.400000
5759 14469 5760 1 109.50000 418.400000
5759 14469 6978 1 109.50000 418.400000
5760 14469 6978 1 109.50000 418.400000
1236 14470 1554 1 109.50000 418.400000
1236 14470 6389 1 109.50000 418.400000
1236 14470 9741 1 109.50000 418.400000
1554 14470 6389 1 109.50000 418.400000
1554 14470 9741 1 109.50000 418.400000
6389 14470 9741 1 109.50000 418.400000
1681 14471 7596 1 109.50000 418.400000
1681 14471 9742 1 109.50000 418.400000
1681 14471 9743 1 109.50000 418.400000
7596 14471 9742 1 109.50000 418.400000
7596 14471 9743 1 109.50000 418.400000
9742 14471 9743 1 109.50000 418.400000
1155 14472 8974 1 109.50000 418.400000
1155 14472 9744 1 109.50000 418.400000
1155 14472 9745 1 109.50000 418.400000
8974 14472 9744 1 109.50000 418.400000
8974 14472 9745 1 109.50000 418.400000
9744 14472 9745 1 109.50000 418.400000
3348 14473 9159 1 109.50000 418.400000
3348 14473 9746 1 109.50000 418.400000
3348 14473 9747 1 109.50000 418.400000
9159 14473 9746 1 109.50000 418.400000
9159 14473 9747 1 109.50000 418.400000
9746 14473 9747 1 109.50000 418.400000
1417 14474 6270 1 109.50000 418.400000
1417 14474 7238 1 109.50000 418.400000
1417 14474 9748 1 109.50000 418.400000
6270 14474 7238 1 109.50000 418.400000
6270 14474 9748 1 109.50000 418.400000
7238 14474 9748 1 109.50000 418.400000
7686 14475 9548 1 109.50000 418.400000
7686 14475 9749 1 109.50000 418.400000
7686 14475 9750 1 109.50000 418.400000
9548 14475 9749 1 109.50000 418.400000
9548 14475 9750 1 109.50000 418.400000
9749 14475 9750 1 109.50000 418.400000
4052 14476 9751 1 109.50000 418.400000
4052 14476 9752 1 109.50000 418.400000
4052 14476 9753 1 109.50000 418.400000
9751 14476 9752 1 109.50000 418.400000
9751 14476 9753 1 109.50000 418.400000
9752 14476 9753 1 109.50000 418.400000
1790 14477 4943 1 109.50000 418.400000
1790 14477 7891 1 109.50000 418.400000
1790 14477 9754 1 109.50000 418.400000
4943 14477 7891 1 109.50000 418.400000
4943 14477 9754 1 109.50000 418.400000
7891 14477 9754 1 109.50000 418.400000
6590 14478 9246 1 109.50000 418.400000
6590 14478 9755 1 109.50000 418.400000
6590 14478 9756 1 109.50000 418.400000
9246 14478 9755 1 109.50000 418.400000
9246 14478 9756 1 109.50000 418.400000
9755 14478 9756 1 109.50000 418.400000
1090 14479 7562 1 109.50000 418.400000
1090 14479 9310 1 109.50000 418.400000
1090 14479 9540 1 109.50000 418.400000
7562 14479 9310 1 109.50000 418.400000
7562 14479 9540 1 109.50000 418.400000
9310 14479 9540 1 109.50000 418.400000
5707 14480 7296 1 109.50000 418.400000
5707 14480 7462 1 109.50000 418.400000
5707 14480 9251 1 109.50000 418.400000
7296 14480 7462 1 109.50000 418.400000
7296 14480 9251 1 109.50000 418.400000
7462 14480 9251 1 109.50000 418.400000
2261 14481 4329 1 109.50000 418.400000
2261 14481 7009 1 109.50000 418.400000
2261 14481 8618 1 109.50000 418.400000
4329 14481 7009 1 109.50000 418.400000
4329 14481 8618 1 109.50000 418.400000
7009 14481 8618 1 109.50000 418.400000
275 14482 6663 1 109.50000 418.400000
275 14482 9757 1 109.50000 418.400000
275 14482 9758 1 109.50000 418.400000
6663 14482 9757 1 109.50000 418.400000
6663 14482 9758 1 109.50000 418.400000
9757 14482 9758 1 109.50000 418.400000
3169 14483 7416 1 109.50000 418.400000
3169 14483 7693 1 109.50000 418.400000
3169 14483 7695 1 109.50000 418.400000
7416 14483 7693 1 109.50000 418.400000
7416 14483 7695 1 109.50000 418.400000
7693 14483 7695 1 109.50000 418.400000
1999 14484 7985 1 109.50000 418.400000
1999 14484 8283 1 109.50000 418.400000
1999 14484 9760 1 109.50000 418.400000
7985 14484 8283 1 109.50000 418.400000
7985 14484 9760 1 109.50000 418.400000
8283 14484 9760 1 109.50000 418.400000
1326 14485 2891 1 109.50000 418.400000
1326 14485 9598 1 109.50000 418.400000
1326 14485 9761 1 109.50000 418.400000
2891 14485 9598 1 109.50000 418.400000
2891 14485 9761 1 109.50000 418.400000
9598 14485 9761 1 109.50000 418.400000
448 14486 1622 1 109.50000 418.400000
448 14486 9762 1 109.50000 418.400000
448 14486 9763 1 109.50000 418.400000
1622 14486 9762 1 109.50000 418.400000
1622 14486 9763 1 109.50000 418.400000
9762 14486 9763 1 109.50000 418.400000
4813 14487 8219 1 109.50000 418.400000
4813 14487 9241 1 109.50000 418.400000
4813 14487 9766 1 109.50000 418.400000
8219 14487 9241 1 109.50000 418.400000
8219 14487 9766 1 109.50000 418.400000
9241 14487 9766 1 109.50000 418.400000
2363 14488 9519 1 109.50000 418.400000
2363 14488 9767 1 109.50000 418.400000
2363 14488 9768 1 109.50000 418.400000
9519 14488 9767 1 109.50000 418.400000
9519 14488 9768 1 109.50000 418.400000
9767 14488 9768 1 109.50000 418.400000
4323 14489 9629 1 109.50000 418.400000
4323 14489 9769 1 109.50000 418.400000
4323 14489 9770 1 109.50000 418.400000
9629 14489 9769 1 109.50000 418.400000
9629 14489 9770 1 109.50000 418.400000
9769 14489 9770 1 109.50000 418.400000
6613 14490 6894 1 109.50000 418.400000
6613 14490 9771 1 109.50000 418.400000
6613 14490 9772 1 109.50000 418.400000
6894 14490 9771 1 109.50000 418.400000
6894 14490 9772 1 109.50000 418.400000
9771 14490 9772 1 109.50000 418.400000
1927 14491 8235 1 109.50000 418.400000
1927 14491 8686 1 109.50000 418.400000
1927 14491 9773 1 109.50000 418.400000
8235 14491 8686 1 109.50000 418.400000
8235 14491 9773 1 109.50000 418.400000
8686 14491 9773 1 109.50000 418.400000
574 14492 3548 1 109.50000 418.400000
574 14492 5478 1 109.50000 418.400000
574 14492 9775 1 109.50000 418.400000
3548 14492 5478 1 109.50000 418.400000
3548 14492 9775 1 109.50000 418.400000
5478 14492 9775 1 109.50000 418.400000
6871 14493 9379 1 109.50000 418.400000
6871 14493 9530 1 109.50000 418.400000
6871 14493 9776 1 109.50000 418.400000
9379 14493 9530 1 109.50000 418.400000
9379 14493 9776 1 109.50000 418.400000
9530 14493 9776 1 109.50000 418.400000
2596 14494 8430 1 109.50000 418.400000
2596 14494 9778 1 109.50000 418.400000
2596 14494 9779 1 109.50000 418.400000
8430 14494 9778 1 109.50000 418.400000
8430 14494 9779 1 109.50000 418.400000
9778 14494 9779 1 109.50000 418.400000
6902 14495 6962 1 109.50000 418.400000
6902 14495 7736 1 109.50000 418.400000
6902 14495 9780 1 109.50000 418.400000
6962 14495 7736 1 109.50000 418.400000
6962 14495 9780 1 109.50000 418.400000
7736 14495 9780 1 109.50000 418.400000
5502 14496 7941 1 109.50000 418.400000
5502 14496 9781 1 109.50000 418.400000
5502 14496 9782 1 109.50000 418.400000
7941 14496 9781 1 109.50000 418.400000
7941 14496 9782 1 109.50000 418.400000
9781 14496 9782 1 109.50000 418.400000
344 14497 9783 1 109.50000 418.400000
344 14497 9784 1 109.50000 418.400000
344 14497 9785 1 109.50000 418.400000
9783 14497 9784 1 109.50000 418.400000
9783 14497 9785 1 109.50000 418.400000
9784 14497 9785 1 109.50000 418.400000
750 14498 3381 1 109.50000 418.400000
750 14498 9044 1 109.50000 418.400000
750 14498 9786 1 109.50000 418.400000
3381 14498 9044 1 109.50000 418.400000
3381 14498 9786 1 109.50000 418.400000
9044 14498 9786 1 109.50000 418.400000
3963 14499 7838 1 109.50000 418.400000
3963 14499 9787 1 109.50000 418.400000
3963 14499 9788 1 109.50000 418.400000
7838 14499 9787 1 109.50000 418.400000
7838 14499 9788 1 109.50000 418.400000
9787 14499 9788 1 109.50000 418.400000
2336 14500 5239 1 109.50000 418.400000
2336 14500 6607 1 109.50000 418.400000
2336 14500 9789 1 109.50000 418.400000
5239 14500 6607 1 109.50000 418.400000
5239 14500 9789 1 109.50000 418.400000
6607 14500 9789 1 109.50000 418.400000
8000 14501 9790 1 109.50000 418.400000
8000 14501 9791 1 109.50000 418.400000
8000 14501 9792 1 109.50000 418.400000
9790 14501 9791 1 109.50000 418.400000
9790 14501 9792 1 109.50000 418.400000
9791 14501 9792 1 109.50000 418.400000
3402 14502 5211 1 109.50000 418.400000
3402 14502 8919 1 109.50000 418.400000
3402 14502 9237 1 109.50000 418.400000
5211 14502 8919 1 109.50000 418.400000
5211 14502 9237 1 109.50000 418.400000
8919 14502 9237 1 109.50000 418.400000
3809 14503 8912 1 109.50000 418.400000
3809 14503 9761 1 109.50000 418.400000
3809 14503 9793 1 109.50000 418.400000
8912 14503 9761 1 109.50000 418.400000
8912 14503 9793 1 109.50000 418.400000
9761 14503 9793 1 109.50000 418.400000
1386 14504 4055 1 109.50000 418.400000
1386 14504 9794 1 109.50000 418.400000
1386 14504 9795 1 109.50000 418.400000
4055 14504 9794 1 109.50000 418.400000
4055 14504 9795 1 109.50000 418.400000
9794 14504 9795 1 109.50000 418.400000
3668 14505 7846 1 109.50000 418.400000
3668 14505 9796 1 109.50000 418.400000
3668 14505 9797 1 109.50000 418.400000
7846 14505 9796 1 109.50000 418.400000
7846 14505 9797 1 109.50000 418.400000
9796 14505 9797 1 109.50000 418.400000
1370 14506 2988 1 109.50000 418.400000
1370 14506 9663 1 109.50000 418.400000
1370 14506 11179 1 109.50000 418.400000
2988 14506 9663 1 109.50000 418.400000
2988 14506 11179 1 109.50000 418.400000
9663 14506 11179 1 109.50000 418.400000
5642 14507 8702 1 109.50000 418.400000
5642 14507 9798 1 109.50000 418.400000
5642 14507 9799 1 109.50000 418.400000
8702 14507 9798 1 109.50000 418.400000
8702 14507 9799 1 109.50000 418.400000
9798 14507 9799 1 109.50000 418.400000
2322 14508 6794 1 109.50000 418.400000
2322 14508 9370 1 109.50000 418.400000
2322 14508 9428 1 109.50000 418.400000
6794 14508 9370 1 109.50000 418.400000
6794 14508 9428 1 109.50000 418.400000
9370 14508 9428 1 109.50000 418.400000
3696 14509 8678 1 109.50000 418.400000
3696 14509 9800 1 109.50000 418.400000
3696 14509 9801 1 109.50000 418.400000
8678 14509 9800 1 109.50000 418.400000
8678 14509 9801 1 109.50000 418.400000
9800 14509 9801 1 109.50000 418.400000
6054 14510 9764 1 109.50000 418.400000
6054 14510 9802 1 109.50000 418.400000
6054 14510 9803 1 109.50000 418.400000
9764 14510 9802 1 109.50000 418.400000
9764 14510 9803 1 109.50000 418.400000
9802 14510 9803 1 109.50000 418.400000
5840 14511 8426 1 109.50000 418.400000
5840 14511 8956 1 109.50000 418.400000
5840 14511 11157 1 109.50000 418.400000
8426 14511 8956 1 109.50000 418.400000
8426 14511 11157 1 109.50000 418.400000
8956 14511 11157 1 109.50000 418.400000
3488 14512 4355 1 109.50000 418.400000
3488 14512 8327 1 109.50000 418.400000
3488 14512 9804 1 109.50000 418.400000
4355 14512 8327 1 109.50000 418.400000
4355 14512 9804 1 109.50000 418.400000
8327 14512 9804 1 109.50000 418.400000
2085 14513 2603 1 109.50000 418.400000
2085 14513 4816 1 109.50000 418.400000
2085 14513 7262 1 109.50000 418.400000
2603 14513 4816 1 109.50000 418.400000
2603 14513 7262 1 109.50000 418.400000
4816 14513 7262 1 109.50000 418.400000
1823 14514 4073 1 109.50000 418.400000
1823 14514 8805 1 109.50000 418.400000
1823 14514 9805 1 109.50000 418.400000
4073 14514 8805 1 109.50000 418.400000
4073 14514 9805 1 109.50000 418.400000
8805 14514 9805 1 109.50000 418.400000
949 14515 951 1 109.50000 418.400000
949 14515 7132 1 109.50000 418.400000
949 14515 9807 1 109.50000 418.400000
951 14515 7132 1 109.50000 418.400000
951 14515 9807 1 109.50000 418.400000
7132 14515 9807 1 109.50000 418.400000
4626 14516 5563 1 109.50000 418.400000
4626 14516 9809 1 109.50000 418.400000
4626 14516 9810 1 109.50000 418.400000
5563 14516 9809 1 109.50000 418.400000
5563 14516 9810 1 109.50000 418.400000
9809 14516 9810 1 109.50000 418.400000
1217 14517 9224 1 109.50000 418.400000
1217 14517 9811 1 109.50000 418.400000
1217 14517 9812 1 109.50000 418.400000
9224 14517 9811 1 109.50000 418.400000
9224 14517 9812 1 109.50000 418.400000
9811 14517 9812 1 109.50000 418.400000
5683 14518 9813 1 109.50000 418.400000
5683 14518 9814 1 109.50000 418.400000
5683 14518 9815 1 109.50000 418.400000
9813 14518 9814 1 109.50000 418.400000
9813 14518 9815 1 109.50000 418.400000
9814 14518 9815 1 109.50000 418.400000
3122 14519 4396 1 109.50000 418.400000
3122 14519 8602 1 109.50000 418.400000
3122 14519 9816 1 109.50000 418.400000
4396 14519 8602 1 109.50000 418.400000
4396 14519 9816 1 109.50000 418.400000
8602 14519 9816 1 109.50000 418.400000
3988 14520 6081 1 109.50000 418.400000
3988 14520 9817 1 109.50000 418.400000
3988 14520 9818 1 109.50000 418.400000
6081 14520 9817 1 109.50000 418.400000
6081 14520 9818 1 109.50000 418.400000
9817 14520 9818 1 109.50000 418.400000
2607 14521 6743 1 109.50000 418.400000
2607 14521 9819 1 109.50000 418.400000
2607 14521 9820 1 109.50000 418.400000
6743 14521 9819 1 109.50000 418.400000
6743 14521 9820 1 109.50000 418.400000
9819 14521 9820 1 109.50000 418.400000
476 14522 8108 1 109.50000 418.400000
476 14522 8496 1 109.50000 418.400000
476 14522 9065 1 109.50000 418.400000
8108 14522 8496 1 109.50000 418.400000
8108 14522 9065 1 109.50000 418.400000
8496 14522 9065 1 109.50000 418.400000
258 14523 4562 1 109.50000 418.400000
258 14523 8018 1 109.50000 418.400000
258 14523 9821 1 109.50000 418.400000
4562 14523 8018 1 109.50000 418.400000
4562 14523 9821 1 109.50000 418.400000
8018 14523 9821 1 109.50000 418.400000
2047 14524 5230 1 109.50000 418.400000
2047 14524 6643 1 109.50000 418.400000
2047 14524 11199 1 109.50000 418.400000
5230 14524 6643 1 109.50000 418.400000
5230 14524 11199 1 109.50000 418.400000
6643 14524 11199 1 109.50000 418.400000
596 14525 736 1 109.50000 418.400000
596 14525 9813 1 109.50000 418.400000
596 14525 9826 1 109.50000 418.400000
736 14525 9813 1 109.50000 418.400000
736 14525 9826 1 109.50000 418.400000
9813 14525 9826 1 109.50000 418.400000
2945 14526 9386 1 109.50000 418.400000
2945 14526 9827 1 109.50000 418.400000
2945 14526 9828 1 109.50000 418.400000
9386 14526 9827 1 109.50000 418.400000
9386 14526 9828 1 109.50000 418.400000
9827 14526 9828 1 109.50000 418.400000
936 14527 6945 1 109.50000 418.400000
936 14527 9829 1 109.50000 418.400000
936 14527 9830 1 109.50000 418.400000
6945 14527 9829 1 109.50000 418.400000
6945 14527 9830 1 109.50000 418.400000
9829 14527 9830 1 109.50000 418.400000
8443 14528 9831 1 109.50000 418.400000
8443 14528 9832 1 109.50000 418.400000
8443 14528 9833 1 109.50000 418.400000
9831 14528 9832 1 109.50000 418.400000
9831 14528 9833 1 109.50000 418.400000
9832 14528 9833 1 109.50000 418.400000
9129 14529 9538 1 109.50000 418.400000
9129 14529 9605 1 109.50000 418.400000
9129 14529 9834 1 109.50000 418.400000
9538 14529 9605 1 109.50000 418.400000
9538 14529 9834 1 109.50000 418.400000
9605 14529 9834 1 109.50000 418.400000
4017 14530 7474 1 109.50000 418.400000
4017 14530 9261 1 109.50000 418.400000
4017 14530 9835 1 109.50000 418.400000
7474 14530 9261 1 109.50000 418.400000
7474 14530 9835 1 109.50000 418.400000
9261 14530 9835 1 109.50000 418.400000
4847 14531 9836 1 109.50000 418.400000
4847 14531 9837 1 109.50000 418.400000
4847 14531 9838 1 109.50000 418.400000
9836 14531 9837 1 109.50000 418.400000
9836 14531 9838 1 109.50000 418.400000
9837 14531 9838 1 109.50000 418.400000
743 14532 3003 1 109.50000 418.400000
743 14532 3084 1 109.50000 418.400000
743 14532 3843 1 109.50000 418.400000
3003 14532 3084 1 109.50000 418.400000
3003 14532 3843 1 109.50000 418.400000
3084 14532 3843 1 109.50000 418.400000
810 14533 4132 1 109.50000 418.400000
810 14533 9839 1 109.50000 418.400000
810 14533 9840 1 109.50000 418.400000
4132 14533 9839 1 109.50000 418.400000
4132 14533 9840 1 109.50000 418.400000
9839 14533 9840 1 109.50000 418.400000
5722 14534 9392 1 109.50000 418.400000
5722 14534 9841 1 109.50000 418.400000
5722 14534 9842 1 109.50000 418.400000
9392 14534 9841 1 109.50000 418.400000
9392 14534 9842 1 109.50000 418.400000
9841 14534 9842 1 109.50000 418.400000
1199 14535 1558 1 109.50000 418.400000
1199 14535 2237 1 109.50000 418.400000
1199 14535 6786 1 109.50000 418.400000
1558 14535 2237 1 109.50000 418.400000
1558 14535 6786 1 109.50000 418.400000
2237 14535 6786 1 109.50000 418.400000
2094 14536 7680 1 109.50000 418.400000
2094 14536 9843 1 109.50000 418.400000
2094 14536 9844 1 109.50000 418.400000
7680 14536 9843 1 109.50000 418.400000
7680 14536 9844 1 109.50000 418.400000
9843 14536 9844 1 109.50000 418.400000
1517 14537 6063 1 109.50000 418.400000
1517 14537 7914 1 109.50000 418.400000
1517 14537 8491 1 109.50000 418.400000
6063 14537 7914 1 109.50000 418.400000
6063 14537 8491 1 109.50000 418.400000
7914 14537 8491 1 109.50000 418.400000
6604 14538 9845 1 109.50000 418.400000
6604 14538 9846 1 109.50000 418.400000
6604 14538 9847 1 109.50000 418.400000
9845 14538 9846 1 109.50000 418.400000
9845 14538 9847 1 109.50000 418.400000
9846 14538 9847 1 109.50000 418.400000
3661 14539 3886 1 109.50000 418.400000
3661 14539 7401 1 109.50000 418.400000
3661 14539 9848 1 109.50000 418.400000
3886 14539 7401 1 109.50000 418.400000
3886 14539 9848 1 109.50000 418.400000
7401 14539 9848 1 109.50000 418.400000
2364 14540 7557 1 109.50000 418.400000
2364 14540 9849 1 109.50000 418.400000
2364 14540 9850 1 109.50000 418.400000
7557 14540 9849 1 109.50000 418.400000
7557 14540 9850 1 109.50000 418.400000
9849 14540 9850 1 109.50000 418.400000
3551 14541 6694 1 109.50000 418.400000
3551 14541 8092 1 109.50000 418.400000
3551 14541 9851 1 109.50000 418.400000
6694 14541 8092 1 109.50000 418.400000
6694 14541 9851 1 109.50000 418.400000
8092 14541 9851 1 109.50000 418.400000
149 14542 2549 1 109.50000 418.400000
149 14542 9854 1 109.50000 418.400000
149 14542 10266 1 109.50000 418.400000
2549 14542 9854 1 109.50000 418.400000
2549 14542 10266 1 109.50000 418.400000
9854 14542 10266 1 109.50000 418.400000
3145 14543 3949 1 109.50000 418.400000
3145 14543 6087 1 109.50000 418.400000
3145 14543 8795 1 109.50000 418.400000
3949 14543 6087 1 109.50000 418.400000
3949 14543 8795 1 109.50000 418.400000
6087 14543 8795 1 109.50000 418.400000
3120 14544 6498 1 109.50000 418.400000
3120 14544 9855 1 109.50000 418.400000
3120 14544 9856 1 109.50000 418.400000
6498 14544 9855 1 109.50000 418.400000
6498 14544 9856 1 109.50000 418.400000
9855 14544 9856 1 109.50000 418.400000
1282 14545 6058 1 109.50000 418.400000
1282 14545 7358 1 109.50000 418.400000
1282 14545 9857 1 109.50000 418.400000
6058 14545 7358 1 109.50000 418.400000
6058 14545 9857 1 109.50000 418.400000
7358 14545 9857 1 109.50000 418.400000
2741 14546 5321 1 109.50000 418.400000
2741 14546 9858 1 109.50000 418.400000
2741 14546 9859 1 109.50000 418.400000
5321 14546 9858 1 109.50000 418.400000
5321 14546 9859 1 109.50000 418.400000
9858 14546 9859 1 109.50000 418.400000
4934 14547 7230 1 109.50000 418.400000
4934 14547 9860 1 109.50000 418.400000
4934 14547 9861 1 109.50000 418.400000
7230 14547 9860 1 109.50000 418.400000
7230 14547 9861 1 109.50000 418.400000
9860 14547 9861 1 109.50000 418.400000
3096 14548 7236 1 109.50000 418.400000
3096 14548 9862 1 109.50000 418.400000
3096 14548 9863 1 109.50000 418.400000
7236 14548 9862 1 109.50000 418.400000
7236 14548 9863 1 109.50000 418.400000
9862 14548 9863 1 109.50000 418.400000
1065 14549 6914 1 109.50000 418.400000
1065 14549 8062 1 109.50000 418.400000
1065 14549 9864 1 109.50000 418.400000
6914 14549 8062 1 109.50000 418.400000
6914 14549 9864 1 109.50000 418.400000
8062 14549 9864 1 109.50000 418.400000
4805 14550 4860 1 109.50000 418.400000
4805 14550 9865 1 109.50000 418.400000
4805 14550 9866 1 109.50000 418.400000
4860 14550 9865 1 109.50000 418.400000
4860 14550 9866 1 109.50000 418.400000
9865 14550 9866 1 109.50000 418.400000
8790 14551 9867 1 109.50000 418.400000
8790 14551 9868 1 109.50000 418.400000
8790 14551 9869 1 109.50000 418.400000
9867 14551 9868 1 109.50000 418.400000
9867 14551 9869 1 109.50000 418.400000
9868 14551 9869 1 109.50000 418.400000
5690 14552 7678 1 109.50000 418.400000
5690 14552 9350 1 109.50000 418.400000
5690 14552 9870 1 109.50000 418.400000
7678 14552 9350 1 109.50000 418.400000
7678 14552 9870 1 109.50000 418.400000
9350 14552 9870 1 109.50000 418.400000
4343 14553 8848 1 109.50000 418.400000
4343 14553 9871 1 109.50000 418.400000
4343 14553 9872 1 109.50000 418.400000
8848 14553 9871 1 109.50000 418.400000
8848 14553 9872 1 109.50000 418.400000
9871 14553 9872 1 109.50000 418.400000
8158 14554 9393 1 109.50000 418.400000
8158 14554 9873 1 109.50000 418.400000
8158 14554 9874 1 109.50000 418.400000
9393 14554 9873 1 109.50000 418.400000
9393 14554 9874 1 109.50000 418.400000
9873 14554 9874 1 109.50000 418.400000
4247 14555 6434 1 109.50000 418.400000
4247 14555 9875 1 109.50000 418.400000
4247 14555 9876 1 109.50000 418.400000
6434 14555 9875 1 109.50000 418.400000
6434 14555 9876 1 109.50000 418.400000
9875 14555 9876 1 109.50000 418.400000
3502 14556 9811 1 109.50000 418.400000
3502 14556 9877 1 109.50000 418.400000
3502 14556 9878 1 109.50000 418.400000
9811 14556 9877 1 109.50000 418.400000
9811 14556 9878 1 109.50000 418.400000
9877 14556 9878 1 109.50000 418.400000
1516 14557 7361 1 109.50000 418.400000
1516 14557 7996 1 109.50000 418.400000
1516 14557 9879 1 109.50000 418.400000
7361 14557 7996 1 109.50000 418.400000
7361 14557 9879 1 109.50000 418.400000
7996 14557 9879 1 109.50000 418.400000
6798 14558 9178 1 109.50000 418.400000
6798 14558 9880 1 109.50000 418.400000
6798 14558 9881 1 109.50000 418.400000
9178 14558 9880 1 109.50000 418.400000
9178 14558 9881 1 109.50000 418.400000
9880 14558 9881 1 109.50000 418.400000
7489 14559 8816 1 109.50000 418.400000
7489 14559 9882 1 109.50000 418.400000
7489 14559 9883 1 109.50000 418.400000
8816 14559 9882 1 109.50000 418.400000
8816 14559 9883 1 109.50000 418.400000
9882 14559 9883 1 109.50000 418.400000
860 14560 6970 1 109.50000 418.400000
860 14560 9787 1 109.50000 418.400000
860 14560 9884 1 109.50000 418.400000
6970 14560 9787 1 109.50000 418.400000
6970 14560 9884 1 109.50000 418.400000
9787 14560 9884 1 109.50000 418.400000
1580 14561 6588 1 109.50000 418.400000
1580 14561 6589 1 109.50000 418.400000
1580 14561 9769 1 109.50000 418.400000
6588 14561 6589 1 109.50000 418.400000
6588 14561 9769 1 109.50000 418.400000
6589 14561 9769 1 109.50000 418.400000
2007 14562 2403 1 109.50000 418.400000
2007 14562 2656 1 109.50000 418.400000
2007 14562 7299 1 109.50000 418.400000
2403 14562 2656 1 109.50000 418.400000
2403 14562 7299 1 109.50000 418.400000
2656 14562 7299 1 109.50000 418.400000
1202 14563 2804 1 109.50000 418.400000
1202 14563 4115 1 109.50000 418.400000
1202 14563 9885 1 109.50000 418.400000
2804 14563 4115 1 109.50000 418.400000
2804 14563 9885 1 109.50000 418.400000
4115 14563 9885 1 109.50000 418.400000
517 14564 9217 1 109.50000 418.400000
517 14564 9218 1 109.50000 418.400000
517 14564 9465 1 109.50000 418.400000
9217 14564 9218 1 109.50000 418.400000
9217 14564 9465 1 109.50000 418.400000
9218 14564 9465 1 109.50000 418.400000
4415 14565 4832 1 109.50000 418.400000
4415 14565 4913 1 109.50000 418.400000
4415 14565 7050 1 109.50000 418.400000
4832 14565 4913 1 109.50000 418.400000
4832 14565 7050 1 109.50000 418.400000
4913 14565 7050 1 109.50000 418.400000
50 14566 4728 1 109.50000 418.400000
50 14566 9676 1 109.50000 418.400000
50 14566 9886 1 109.50000 418.400000
4728 14566 9676 1 109.50000 418.400000
4728 14566 9886 1 109.50000 418.400000
9676 14566 9886 1 109.50000 418.400000
1735 14567 2010 1 109.50000 418.400000
1735 14567 2080 1 109.50000 418.400000
1735 14567 5941 1 109.50000 418.400000
2010 14567 2080 1 109.50000 418.400000
2010 14567 5941 1 109.50000 418.400000
2080 14567 5941 1 109.50000 418.400000
1233 14568 9069 1 109.50000 418.400000
1233 14568 9888 1 109.50000 418.400000
1233 14568 9889 1 109.50000 418.400000
9069 14568 9888 1 109.50000 418.400000
9069 14568 9889 1 109.50000 418.400000
9888 14568 9889 1 109.50000 418.400000
2290 14569 9890 1 109.50000 418.400000
2290 14569 9891 1 109.50000 418.400000
2290 14569 9892 1 109.50000 418.400000
9890 14569 9891 1 109.50000 418.400000
9890 14569 9892 1 109.50000 418.400000
9891 14569 9892 1 109.50000 418.400000
820 14570 2374 1 109.50000 418.400000
820 14570 9893 1 109.50000 418.400000
820 14570 9894 1 109.50000 418.400000
2374 14570 9893 1 109.50000 418.400000
2374 14570 9894 1 109.50000 418.400000
9893 14570 9894 1 109.50000 418.400000
6025 14571 8551 1 109.50000 418.400000
6025 14571 8944 1 109.50000 418.400000
6025 14571 9895 1 109.50000 418.400000
8551 14571 8944 1 109.50000 418.400000
8551 14571 9895 1 109.50000 418.400000
8944 14571 9895 1 109.50000 418.400000
6618 14572 6956 1 109.50000 418.400000
6618 14572 7775 1 109.50000 418.400000
6618 14572 9896 1 109.50000 418.400000
6956 14572 7775 1 109.50000 418.400000
6956 14572 9896 1 109.50000 418.400000
7775 14572 9896 1 109.50000 418.400000
2376 14573 5223 1 109.50000 418.400000
2376 14573 9897 1 109.50000 418.400000
2376 14573 9898 1 109.50000 418.400000
5223 14573 9897 1 109.50000 418.400000
5223 14573 9898 1 109.50000 418.400000
9897 14573 9898 1 109.50000 418.400000
6077 14574 6451 1 109.50000 418.400000
6077 14574 8315 1 109.50000 418.400000
6077 14574 9899 1 109.50000 418.400000
6451 14574 8315 1 109.50000 418.400000
6451 14574 9899 1 109.50000 418.400000
8315 14574 9899 1 109.50000 418.400000
1290 14575 1397 1 109.50000 418.400000
1290 14575 6842 1 109.50000 418.400000
1290 14575 9669 1 109.50000 418.400000
1397 14575 6842 1 109.50000 418.400000
1397 14575 9669 1 109.50000 418.400000
6842 14575 9669 1 109.50000 418.400000
9491 14576 9900 1 109.50000 418.400000
9491 14576 9901 1 109.50000 418.400000
9491 14576 9902 1 109.50000 418.400000
9900 14576 9901 1 109.50000 418.400000
9900 14576 9902 1 109.50000 418.400000
9901 14576 9902 1 109.50000 418.400000
6400 14577 9485 1 109.50000 418.400000
6400 14577 9906 1 109.50000 418.400000
6400 14577 9907 1 109.50000 418.400000
9485 14577 9906 1 109.50000 418.400000
9485 14577 9907 1 109.50000 418.400000
9906 14577 9907 1 109.50000 418.400000
6501 14578 7524 1 109.50000 418.400000
6501 14578 9908 1 109.50000 418.400000
6501 14578 9909 1 109.50000 418.400000
7524 14578 9908 1 109.50000 418.400000
7524 14578 9909 1 109.50000 418.400000
9908 14578 9909 1 109.50000 418.400000
2499 14579 4539 1 109.50000 418.400000
2499 14579 8362 1 109.50000 418.400000
2499 14579 11197 1 109.50000 418.400000
4539 14579 8362 1 109.50000 418.400000
4539 14579 11197 1 109.50000 418.400000
8362 14579 11197 1 109.50000 418.400000
2131 14580 2740 1 109.50000 418.400000
2131 14580 5771 1 109.50000 418.400000
2131 14580 9911 1 109.50000 418.400000
2740 14580 5771 1 109.50000 418.400000
2740 14580 9911 1 109.50000 418.400000
5771 14580 9911 1 109.50000 418.400000
4405 14581 6207 1 109.50000 418.400000
4405 14581 8102 1 109.50000 418.400000
4405 14581 9912 1 109.50000 418.400000
6207 14581 8102 1 109.50000 418.400000
6207 14581 9912 1 109.50000 418.400000
8102 14581 9912 1 109.50000 418.400000
283 14582 9119 1 109.50000 418.400000
283 14582 9307 1 109.50000 418.400000
283 14582 9913 1 109.50000 418.400000
9119 14582 9307 1 109.50000 418.400000
9119 14582 9913 1 109.50000 418.400000
9307 14582 9913 1 109.50000 418.400000
1159 14583 7939 1 109.50000 418.400000
1159 14583 8543 1 109.50000 418.400000
1159 14583 9419 1 109.50000 418.400000
7939 14583 8543 1 109.50000 418.400000
7939 14583 9419 1 109.50000 418.400000
8543 14583 9419 1 109.50000 418.400000
244 14584 7626 1 109.50000 418.400000
244 14584 8793 1 109.50000 418.400000
244 14584 9192 1 109.50000 418.400000
7626 14584 8793 1 109.50000 418.400000
7626 14584 9192 1 109.50000 418.400000
8793 14584 9192 1 109.50000 418.400000
3882 14585 4474 1 109.50000 418.400000
3882 14585 9914 1 109.50000 418.400000
3882 14585 9915 1 109.50000 418.400000
4474 14585 9914 1 109.50000 418.400000
4474 14585 9915 1 109.50000 418.400000
9914 14585 9915 1 109.50000 418.400000
3508 14586 7768 1 109.50000 418.400000
3508 14586 8733 1 109.50000 418.400000
3508 14586 9916 1 109.50000 418.400000
7768 14586 8733 1 109.50000 418.400000
7768 14586 9916 1 109.50000 418.400000
8733 14586 9916 1 109.50000 418.400000
3906 14587 6845 1 109.50000 418.400000
3906 14587 9917 1 109.50000 418.400000
3906 14587 9918 1 109.50000 418.400000
6845 14587 9917 1 109.50000 418.400000
6845 14587 9918 1 109.50000 418.400000
9917 14587 9918 1 109.50000 418.400000
6841 14588 7138 1 109.50000 418.400000
6841 14588 9919 1 109.50000 418.400000
6841 14588 9920 1 109.50000 418.400000
7138 14588 9919 1 109.50000 418.400000
7138 14588 9920 1 109.50000 418.400000
9919 14588 9920 1 109.50000 418.400000
6195 14589 7176 1 109.50000 418.400000
6195 14589 8302 1 109.50000 418.400000
6195 14589 9921 1 109.50000 418.400000
7176 14589 8302 1 109.50000 418.400000
7176 14589 9921 1 109.50000 418.400000
8302 14589 9921 1 109.50000 418.400000
3498 14590 4671 1 109.50000 418.400000
3498 14590 5430 1 109.50000 418.400000
3498 14590 9922 1 109.50000 418.400000
4671 14590 5430 1 109.50000 418.400000
4671 14590 9922 1 109.50000 418.400000
5430 14590 9922 1 109.50000 418.400000
7077 14591 8896 1 109.50000 418.400000
7077 14591 9924 1 109.50000 418.400000
7077 14591 9925 1 109.50000 418.400000
8896 14591 9924 1 109.50000 418.400000
8896 14591 9925 1 109.50000 418.400000
9924 14591 9925 1 109.50000 418.400000
499 14592 9359 1 109.50000 418.400000
499 14592 9360 1 109.50000 418.400000
499 14592 9926 1 109.50000 418.400000
9359 14592 9360 1 109.50000 418.400000
9359 14592 9926 1 109.50000 418.400000
9360 14592 9926 1 109.50000 418.400000
1934 14593 3437 1 109.50000 418.400000
1934 14593 9809 1 109.50000 418.400000
1934 14593 9928 1 109.50000 418.400000
3437 14593 9809 1 109.50000 418.400000
3437 14593 9928 1 109.50000 418.400000
9809 14593 9928 1 109.50000 418.400000
2416 14594 8035 1 109.50000 418.400000
2416 14594 9759 1 109.50000 418.400000
2416 14594 9760 1 109.50000 418.400000
8035 14594 9759 1 109.50000 418.400000
8035 14594 9760 1 109.50000 418.400000
9759 14594 9760 1 109.50000 418.400000
463 14595 6477 1 109.50000 418.400000
463 14595 9142 1 109.50000 418.400000
463 14595 9929 1 109.50000 418.400000
6477 14595 9142 1 109.50000 418.400000
6477 14595 9929 1 109.50000 418.400000
9142 14595 9929 1 109.50000 418.400000
7530 14596 7795 1 109.50000 418.400000
7530 14596 9931 1 109.50000 418.400000
7530 14596 9932 1 109.50000 418.400000
7795 14596 9931 1 109.50000 418.400000
7795 14596 9932 1 109.50000 418.400000
9931 14596 9932 1 109.50000 418.400000
3285 14597 5981 1 109.50000 418.400000
3285 14597 9933 1 109.50000 418.400000
3285 14597 11173 1 109.50000 418.400000
5981 14597 9933 1 109.50000 418.400000
5981 14597 11173 1 109.50000 418.400000
9933 14597 11173 1 109.50000 418.400000
2902 14598 9239 1 109.50000 418.400000
2902 14598 9902 1 109.50000 418.400000
2902 14598 9934 1 109.50000 418.400000
9239 14598 9902 1 109.50000 418.400000
9239 14598 9934 1 109.50000 418.400000
9902 14598 9934 1 109.50000 418.400000
500 14599 3484 1 109.50000 418.400000
500 14599 9082 1 109.50000 418.400000
500 14599 9935 1 109.50000 418.400000
3484 14599 9082 1 109.50000 418.400000
3484 14599 9935 1 109.50000 418.400000
9082 14599 9935 1 109.50000 418.400000
3704 14600 5302 1 109.50000 418.400000
3704 14600 9936 1 109.50000 418.400000
3704 14600 9937 1 109.50000 418.400000
5302 14600 9936 1 109.50000 418.400000
5302 14600 9937 1 109.50000 418.400000
9936 14600 9937 1 109.50000 418.400000
4983 14601 8447 1 109.50000 418.400000
4983 14601 8487 1 109.50000 418.400000
4983 14601 9938 1 109.50000 418.400000
8447 14601 8487 1 109.50000 418.400000
8447 14601 9938 1 109.50000 418.400000
8487 14601 9938 1 109.50000 418.400000
2814 14602 8696 1 109.50000 418.400000
2814 14602 8897 1 109.50000 418.400000
2814 14602 9939 1 109.50000 418.400000
8696 14602 8897 1 109.50000 418.400000
8696 14602 9939 1 109.50000 418.400000
8897 14602 9939 1 109.50000 418.400000
3613 14603 9707 1 109.50000 418.400000
3613 14603 9941 1 109.50000 418.400000
3613 14603 9942 1 109.50000 418.400000
9707 14603 9941 1 109.50000 418.400000
9707 14603 9942 1 109.50000 418.400000
9941 14603 9942 1 109.50000 418.400000
2037 14604 2370 1 109.50000 418.400000
2037 14604 2393 1 109.50000 418.400000
2037 14604 7413 1 109.50000 418.400000
2370 14604 2393 1 109.50000 418.400000
2370 14604 7413 1 109.50000 418.400000
2393 14604 7413 1 109.50000 418.400000
1690 14605 4230 1 109.50000 418.400000
1690 14605 5194 1 109.50000 418.400000
1690 14605 9943 1 109.50000 418.400000
4230 14605 5194 1 109.50000 418.400000
4230 14605 9943 1 109.50000 418.400000
5194 14605 9943 1 109.50000 418.400000
3407 14606 7315 1 109.50000 418.400000
3407 14606 8080 1 109.50000 418.400000
3407 14606 9944 1 109.50000 418.400000
7315 14606 8080 1 109.50000 418.400000
7315 14606 9944 1 109.50000 418.400000
8080 14606 9944 1 109.50000 418.400000
5453 14607 5693 1 109.50000 418.400000
5453 14607 9945 1 109.50000 418.400000
5453 14607 9946 1 109.50000 418.400000
5693 14607 9945 1 109.50000 418.400000
5693 14607 9946 1 109.50000 418.400000
9945 14607 9946 1 109.50000 418.400000
6968 14608 6969 1 109.50000 418.400000
6968 14608 9947 1 109.50000 418.400000
6968 14608 9948 1 109.50000 418.400000
6969 14608 9947 1 109.50000 418.400000
6969 14608 9948 1 109.50000 418.400000
9947 14608 9948 1 109.50000 418.400000
9951 14609 9952 1 109.50000 418.400000
9951 14609 9953 1 109.50000 418.400000
9951 14609 9954 1 109.50000 418.400000
9952 14609 9953 1 109.50000 418.400000
9952 14609 9954 1 109.50000 418.400000
9953 14609 9954 1 109.50000 418.400000
897 14610 1855 1 109.50000 418.400000
897 14610 4030 1 109.50000 418.400000
897 14610 9051 1 109.50000 418.400000
1855 14610 4030 1 109.50000 418.400000
1855 14610 9051 1 109.50000 418.400000
4030 14610 9051 1 109.50000 418.400000
1006 14611 1493 1 109.50000 418.400000
1006 14611 4842 1 109.50000 418.400000
1006 14611 6137 1 109.50000 418.400000
1493 14611 4842 1 109.50000 418.400000
1493 14611 6137 1 109.50000 418.400000
4842 14611 6137 1 109.50000 418.400000
3760 14612 8515 1 109.50000 418.400000
3760 14612 9842 1 109.50000 418.400000
3760 14612 9956 1 109.50000 418.400000
8515 14612 9842 1 109.50000 418.400000
8515 14612 9956 1 109.50000 418.400000
9842 14612 9956 1 109.50000 418.400000
4163 14613 8342 1 109.50000 418.400000
4163 14613 9147 1 109.50000 418.400000
4163 14613 9957 1 109.50000 418.400000
8342 14613 9147 1 109.50000 418.400000
8342 14613 9957 1 109.50000 418.400000
9147 14613 9957 1 109.50000 418.400000
477 14614 1105 1 109.50000 418.400000
477 14614 9320 1 109.50000 418.400000
477 14614 9958 1 109.50000 418.400000
1105 14614 9320 1 109.50000 418.400000
1105 14614 9958 1 109.50000 418.400000
9320 14614 9958 1 109.50000 418.400000
4799 14615 5653 1 109.50000 418.400000
4799 14615 9959 1 109.50000 418.400000
4799 14615 9960 1 109.50000 418.400000
5653 14615 9959 1 109.50000 418.400000
5653 14615 9960 1 109.50000 418.400000
9959 14615 9960 1 109.50000 418.400000
748 14616 7086 1 109.50000 418.400000
748 14616 8798 1 109.50000 418.400000
748 14616 9961 1 109.50000 418.400000
7086 14616 8798 1 109.50000 418.400000
7086 14616 9961 1 109.50000 418.400000
8798 14616 9961 1 109.50000 418.400000
9423 14617 9962 1 109.50000 418.400000
9423 14617 9963 1 109.50000 418.400000
9423 14617 11227 1 109.50000 418.400000
9962 14617 9963 1 109.50000 418.400000
9962 14617 11227 1 109.50000 418.400000
9963 14617 11227 1 109.50000 418.400000
4148 14618 4840 1 109.50000 418.400000
4148 14618 9601 1 109.50000 418.400000
4148 14618 9964 1 109.50000 418.400000
4840 14618 9601 1 109.50000 418.400000
4840 14618 9964 1 109.50000 418.400000
9601 14618 9964 1 109.50000 418.400000
3745 14619 6210 1 109.50000 418.400000
3745 14619 9671 1 109.50000 418.400000
3745 14619 9967 1 109.50000 418.400000
6210 14619 9671 1 109.50000 418.400000
6210 14619 9967 1 109.50000 418.400000
9671 14619 9967 1 109.50000 418.400000
2658 14620 7995 1 109.50000 418.400000
2658 14620 9968 1 109.50000 418.400000
2658 14620 9969 1 109.50000 418.400000
7995 14620 9968 1 109.50000 418.400000
7995 14620 9969 1 109.50000 418.400000
9968 14620 9969 1 109.50000 418.400000
6483 14621 7553 1 109.50000 418.400000
6483 14621 8485 1 109.50000 418.400000
6483 14621 9970 1 109.50000 418.400000
7553 14621 8485 1 109.50000 418.400000
7553 14621 9970 1 109.50000 418.400000
8485 14621 9970 1 109.50000 418.400000
4303 14622 8384 1 109.50000 418.400000
4303 14622 8523 1 109.50000 418.400000
4303 14622 8866 1 109.50000 418.400000
8384 14622 8523 1 109.50000 418.400000
8384 14622 8866 1 109.50000 418.400000
8523 14622 8866 1 109.50000 418.400000
8153 14623 8876 1 109.50000 418.400000
8153 14623 9971 1 109.50000 418.400000
8153 14623 9972 1 109.50000 418.400000
8876 14623 9971 1 109.50000 418.400000
8876 14623 9972 1 109.50000 418.400000
9971 14623 9972 1 109.50000 418.400000
3040 14624 4377 1 109.50000 418.400000
3040 14624 9321 1 109.50000 418.400000
3040 14624 9973 1 109.50000 418.400000
4377 14624 9321 1 109.50000 418.400000
4377 14624 9973 1 109.50000 418.400000
9321 14624 9973 1 109.50000 418.400000
4618 14625 7921 1 109.50000 418.400000
4618 14625 9974 1 109.50000 418.400000
4618 14625 9975 1 109.50000 418.400000
7921 14625 9974 1 109.50000 418.400000
7921 14625 9975 1 109.50000 418.400000
9974 14625 9975 1 109.50000 418.400000
981 14626 982 1 109.50000 418.400000
981 14626 5667 1 109.50000 418.400000
981 14626 9976 1 109.50000 418.400000
982 14626 5667 1 109.50000 418.400000
982 14626 9976 1 109.50000 418.400000
5667 14626 9976 1 109.50000 418.400000
1286 14627 1287 1 109.50000 418.400000
1286 14627 6403 1 109.50000 418.400000
1286 14627 9977 1 109.50000 418.400000
1287 14627 6403 1 109.50000 418.400000
1287 14627 9977 1 109.50000 418.400000
6403 14627 9977 1 109.50000 418.400000
619 14628 4871 1 109.50000 418.400000
619 14628 8980 1 109.50000 418.400000
619 14628 11192 1 109.50000 418.400000
4871 14628 8980 1 109.50000 418.400000
4871 14628 11192 1 109.50000 418.400000
8980 14628 11192 1 109.50000 418.400000
4890 14629 9075 1 109.50000 418.400000
4890 14629 9979 1 109.50000 418.400000
4890 14629 9980 1 109.50000 418.400000
9075 14629 9979 1 109.50000 418.400000
9075 14629 9980 1 109.50000 418.400000
9979 14629 9980 1 109.50000 418.400000
1 14630 2440 1 109.50000 418.400000
1 14630 4345 1 109.50000 418.400000
1 14630 6630 1 109.50000 418.400000
2440 14630 4345 1 109.50000 418.400000
2440 14630 6630 1 109.50000 418.400000
4345 14630 6630 1 109.50000 418.400000
3178 14631 7101 1 109.50000 418.400000
3178 14631 8622 1 109.50000 418.400000
3178 14631 9982 1 109.50000 418.400000
7101 14631 8622 1 109.50000 418.400000
7101 14631 9982 1 109.50000 418.400000
8622 14631 9982 1 109.50000 418.400000
1173 14632 7395 1 109.50000 418.400000
1173 14632 9721 1 109.50000 418.400000
1173 14632 9983 1 109.50000 418.400000
7395 14632 9721 1 109.50000 418.400000
7395 14632 9983 1 109.50000 418.400000
9721 14632 9983 1 109.50000 418.400000
2287 14633 3514 1 109.50000 418.400000
2287 14633 9984 1 109.50000 418.400000
2287 14633 9985 1 109.50000 418.400000
3514 14633 9984 1 109.50000 418.400000
3514 14633 9985 1 109.50000 418.400000
9984 14633 9985 1 109.50000 418.400000
2274 14634 5032 1 109.50000 418.400000
2274 14634 9784 1 109.50000 418.400000
2274 14634 9986 1 109.50000 418.400000
5032 14634 9784 1 109.50000 418.400000
5032 14634 9986 1 109.50000 418.400000
9784 14634 9986 1 109.50000 418.400000
2502 14635 3473 1 109.50000 418.400000
2502 14635 6102 1 109.50000 418.400000
2502 14635 9447 1 109.50000 418.400000
3473 14635 6102 1 109.50000 418.400000
3473 14635 9447 1 109.50000 418.400000
6102 14635 9447 1 109.50000 418.400000
1787 14636 6409 1 109.50000 418.400000
1787 14636 9357 1 109.50000 418.400000
1787 14636 9987 1 109.50000 418.400000
6409 14636 9357 1 109.50000 418.400000
6409 14636 9987 1 109.50000 418.400000
9357 14636 9987 1 109.50000 418.400000
1976 14637 6840 1 109.50000 418.400000
1976 14637 9988 1 109.50000 418.400000
1976 14637 9989 1 109.50000 418.400000
6840 14637 9988 1 109.50000 418.400000
6840 14637 9989 1 109.50000 418.400000
9988 14637 9989 1 109.50000 418.400000
8178 14638 8246 1 109.50000 418.400000
8178 14638 9991 1 109.50000 418.400000
8178 14638 9992 1 109.50000 418.400000
8246 14638 9991 1 109.50000 418.400000
8246 14638 9992 1 109.50000 418.400000
9991 14638 9992 1 109.50000 418.400000
1796 14639 3472 1 109.50000 418.400000
1796 14639 9445 1 109.50000 418.400000
1796 14639 9996 1 109.50000 418.400000
3472 14639 9445 1 109.50000 418.400000
3472 14639 9996 1 109.50000 418.400000
9445 14639 9996 1 109.50000 418.400000
1912 14640 2566 1 109.50000 418.400000
1912 14640 5779 1 109.50000 418.400000
1912 14640 8837 1 109.50000 418.400000
2566 14640 5779 1 109.50000 418.400000
2566 14640 8837 1 109.50000 418.400000
5779 14640 8837 1 109.50000 418.400000
1535 14641 5451 1 109.50000 418.400000
1535 14641 8243 1 109.50000 418.400000
1535 14641 9816 1 109.50000 418.400000
5451 14641 8243 1 109.50000 418.400000
5451 14641 9816 1 109.50000 418.400000
8243 14641 9816 1 109.50000 418.400000
6179 14642 8637 1 109.50000 418.400000
6179 14642 9997 1 109.50000 418.400000
6179 14642 9998 1 109.50000 418.400000
8637 14642 9997 1 109.50000 418.400000
8637 14642 9998 1 109.50000 418.400000
9997 14642 9998 1 109.50000 418.400000
9468 14643 9999 1 109.50000 418.400000
9468 14643 10000 1 109.50000 418.400000
9468 14643 10001 1 109.50000 418.400000
9999 14643 10000 1 109.50000 418.400000
9999 14643 10001 1 109.50000 418.400000
10000 14643 10001 1 109.50000 418.400000
2325 14644 8024 1 109.50000 418.400000
2325 14644 8489 1 109.50000 418.400000
2325 14644 9481 1 109.50000 418.400000
8024 14644 8489 1 109.50000 418.400000
8024 14644 9481 1 109.50000 418.400000
8489 14644 9481 1 109.50000 418.400000
8190 14645 10002 1 109.50000 418.400000
8190 14645 10003 1 109.50000 418.400000
8190 14645 10004 1 109.50000 418.400000
10002 14645 10003 1 109.50000 418.400000
10002 14645 10004 1 109.50000 418.400000
10003 14645 10004 1 109.50000 418.400000
4615 14646 5718 1 109.50000 418.400000
4615 14646 10005 1 109.50000 418.400000
4615 14646 10006 1 109.50000 418.400000
5718 14646 10005 1 109.50000 418.400000
5718 14646 10006 1 109.50000 418.400000
10005 14646 10006 1 109.50000 418.400000
6819 14647 8169 1 109.50000 418.400000
6819 14647 9694 1 109.50000 418.400000
6819 14647 10007 1 109.50000 418.400000
8169 14647 9694 1 109.50000 418.400000
8169 14647 10007 1 109.50000 418.400000
9694 14647 10007 1 109.50000 418.400000
4287 14648 5900 1 109.50000 418.400000
4287 14648 6052 1 109.50000 418.400000
4287 14648 10008 1 109.50000 418.400000
5900 14648 6052 1 109.50000 418.400000
5900 14648 10008 1 109.50000 418.400000
6052 14648 10008 1 109.50000 418.400000
8852 14649 9856 1 109.50000 418.400000
8852 14649 9935 1 109.50000 418.400000
8852 14649 10009 1 109.50000 418.400000
9856 14649 9935 1 109.50000 418.400000
9856 14649 10009 1 109.50000 418.400000
9935 14649 10009 1 109.50000 418.400000
8146 14650 8918 1 109.50000 418.400000
8146 14650 10010 1 109.50000 418.400000
8146 14650 10011 1 109.50000 418.400000
8918 14650 10010 1 109.50000 418.400000
8918 14650 10011 1 109.50000 418.400000
10010 14650 10011 1 109.50000 418.400000
6602 14651 6878 1 109.50000 418.400000
6602 14651 8180 1 109.50000 418.400000
6602 14651 9805 1 109.50000 418.400000
6878 14651 8180 1 109.50000 418.400000
6878 14651 9805 1 109.50000 418.400000
8180 14651 9805 1 109.50000 418.400000
3123 14652 5452 1 109.50000 418.400000
3123 14652 10013 1 109.50000 418.400000
3123 14652 10014 1 109.50000 418.400000
5452 14652 10013 1 109.50000 418.400000
5452 14652 10014 1 109.50000 418.400000
10013 14652 10014 1 109.50000 418.400000
3296 14653 6626 1 109.50000 418.400000
3296 14653 7971 1 109.50000 418.400000
3296 14653 10015 1 109.50000 418.400000
6626 14653 7971 1 109.50000 418.400000
6626 14653 10015 1 109.50000 418.400000
7971 14653 10015 1 109.50000 418.400000
7167 14654 7738 1 109.50000 418.400000
7167 14654 10016 1 109.50000 418.400000
7167 14654 10017 1 109.50000 418.400000
7738 14654 10016 1 109.50000 418.400000
7738 14654 10017 1 109.50000 418.400000
10016 14654 10017 1 109.50000 418.400000
5741 14655 10018 1 109.50000 418.400000
5741 14655 10019 1 109.50000 418.400000
5741 14655 10020 1 109.50000 418.400000
10018 14655 10019 1 109.50000 418.400000
10018 14655 10020 1 109.50000 418.400000
10019 14655 10020 1 109.50000 418.400000
6401 14656 6585 1 109.50000 418.400000
6401 14656 10022 1 109.50000 418.400000
6401 14656 10023 1 109.50000 418.400000
6585 14656 10022 1 109.50000 418.400000
6585 14656 10023 1 109.50000 418.400000
10022 14656 10023 1 109.50000 418.400000
615 14657 6279 1 109.50000 418.400000
615 14657 8788 1 109.50000 418.400000
615 14657 10025 1 109.50000 418.400000
6279 14657 8788 1 109.50000 418.400000
6279 14657 10025 1 109.50000 418.400000
8788 14657 10025 1 109.50000 418.400000
1893 14658 2039 1 109.50000 418.400000
1893 14658 3214 1 109.50000 418.400000
1893 14658 10026 1 109.50000 418.400000
2039 14658 3214 1 109.50000 418.400000
2039 14658 10026 1 109.50000 418.400000
3214 14658 10026 1 109.50000 418.400000
5808 14659 7578 1 109.50000 418.400000
5808 14659 10027 1 109.50000 418.400000
5808 14659 10028 1 109.50000 418.400000
7578 14659 10027 1 109.50000 418.400000
7578 14659 10028 1 109.50000 418.400000
10027 14659 10028 1 109.50000 418.400000
2386 14660 4401 1 109.50000 418.400000
2386 14660 5228 1 109.50000 418.400000
2386 14660 5996 1 109.50000 418.400000
4401 14660 5228 1 109.50000 418.400000
4401 14660 5996 1 109.50000 418.400000
5228 14660 5996 1 109.50000 418.400000
8143 14661 8873 1 109.50000 418.400000
8143 14661 9415 1 109.50000 418.400000
8143 14661 10029 1 109.50000 418.400000
8873 14661 9415 1 109.50000 418.400000
8873 14661 10029 1 109.50000 418.400000
9415 14661 10029 1 109.50000 418.400000
2201 14662 7109 1 109.50000 418.400000
2201 14662 9822 1 109.50000 418.400000
2201 14662 9963 1 109.50000 418.400000
7109 14662 9822 1 109.50000 418.400000
7109 14662 9963 1 109.50000 418.400000
9822 14662 9963 1 109.50000 418.400000
6746 14663 7114 1 109.50000 418.400000
6746 14663 10030 1 109.50000 418.400000
6746 14663 11217 1 109.50000 418.400000
7114 14663 10030 1 109.50000 418.400000
7114 14663 11217 1 109.50000 418.400000
10030 14663 11217 1 109.50000 418.400000
6948 14664 6949 1 109.50000 418.400000
6948 14664 6950 1 109.50000 418.400000
6948 14664 10031 1 109.50000 418.400000
6949 14664 6950 1 109.50000 418.400000
6949 14664 10031 1 109.50000 418.400000
6950 14664 10031 1 109.50000 418.400000
69 14665 2698 1 109.50000 418.400000
69 14665 2913 1 109.50000 418.400000
69 14665 10033 1 109.50000 418.400000
2698 14665 2913 1 109.50000 418.400000
2698 14665 10033 1 109.50000 418.400000
2913 14665 10033 1 109.50000 418.400000
3204 14666 3278 1 109.50000 418.400000
3204 14666 4174 1 109.50000 418.400000
3204 14666 5240 1 109.50000 418.400000
3278 14666 4174 1 109.50000 418.400000
3278 14666 5240 1 109.50000 418.400000
4174 14666 5240 1 109.50000 418.400000
2998 14667 4855 1 109.50000 418.400000
2998 14667 7012 1 109.50000 418.400000
2998 14667 8909 1 109.50000 418.400000
4855 14667 7012 1 109.50000 418.400000
4855 14667 8909 1 109.50000 418.400000
7012 14667 8909 1 109.50000 418.400000
3975 14668 5425 1 109.50000 418.400000
3975 14668 10037 1 109.50000 418.400000
3975 14668 10038 1 109.50000 418.400000
5425 14668 10037 1 109.50000 418.400000
5425 14668 10038 1 109.50000 418.400000
10037 14668 10038 1 109.50000 418.400000
2720 14669 4867 1 109.50000 418.400000
2720 14669 5347 1 109.50000 418.400000
2720 14669 10039 1 109.50000 418.400000
4867 14669 5347 1 109.50000 418.400000
4867 14669 10039 1 109.50000 418.400000
5347 14669 10039 1 109.50000 418.400000
4284 14670 4285 1 109.50000 418.400000
4284 14670 4946 1 109.50000 418.400000
4284 14670 10040 1 109.50000 418.400000
4285 14670 4946 1 109.50000 418.400000
4285 14670 10040 1 109.50000 418.400000
4946 14670 10040 1 109.50000 418.400000
1283 14671 8195 1 109.50000 418.400000
1283 14671 9115 1 109.50000 418.400000
1283 14671 10041 1 109.50000 418.400000
8195 14671 9115 1 109.50000 418.400000
8195 14671 10041 1 109.50000 418.400000
9115 14671 10041 1 109.50000 418.400000
1865 14672 6926 1 109.50000 418.400000
1865 14672 10042 1 109.50000 418.400000
1865 14672 10043 1 109.50000 418.400000
6926 14672 10042 1 109.50000 418.400000
6926 14672 10043 1 109.50000 418.400000
10042 14672 10043 1 109.50000 418.400000
4301 14673 6319 1 109.50000 418.400000
4301 14673 6690 1 109.50000 418.400000
4301 14673 8004 1 109.50000 418.400000
6319 14673 6690 1 109.50000 418.400000
6319 14673 8004 1 109.50000 418.400000
6690 14673 8004 1 109.50000 418.400000
3019 14674 7810 1 109.50000 418.400000
3019 14674 10044 1 109.50000 418.400000
3019 14674 10045 1 109.50000 418.400000
7810 14674 10044 1 109.50000 418.400000
7810 14674 10045 1 109.50000 418.400000
10044 14674 10045 1 109.50000 418.400000
3939 14675 5894 1 109.50000 418.400000
3939 14675 9430 1 109.50000 418.400000
3939 14675 10048 1 109.50000 418.400000
5894 14675 9430 1 109.50000 418.400000
5894 14675 10048 1 109.50000 418.400000
9430 14675 10048 1 109.50000 418.400000
3385 14676 4053 1 109.50000 418.400000
3385 14676 10049 1 109.50000 418.400000
3385 14676 10050 1 109.50000 418.400000
4053 14676 10049 1 109.50000 418.400000
4053 14676 10050 1 109.50000 418.400000
10049 14676 10050 1 109.50000 418.400000
2337 14677 4276 1 109.50000 418.400000
2337 14677 6112 1 109.50000 418.400000
2337 14677 6113 1 109.50000 418.400000
4276 14677 6112 1 109.50000 418.400000
4276 14677 6113 1 109.50000 418.400000
6112 14677 6113 1 109.50000 418.400000
5849 14678 8494 1 109.50000 418.400000
5849 14678 10053 1 109.50000 418.400000
5849 14678 11162 1 109.50000 418.400000
8494 14678 10053 1 109.50000 418.400000
8494 14678 11162 1 109.50000 418.400000
10053 14678 11162 1 109.50000 418.400000
4263 14679 6565 1 109.50000 418.400000
4263 14679 6672 1 109.50000 418.400000
4263 14679 10054 1 109.50000 418.400000
6565 14679 6672 1 109.50000 418.400000
6565 14679 10054 1 109.50000 418.400000
6672 14679 10054 1 109.50000 418.400000
3170 14680 6055 1 109.50000 418.400000
3170 14680 6881 1 109.50000 418.400000
3170 14680 8802 1 109.50000 418.400000
6055 14680 6881 1 109.50000 418.400000
6055 14680 8802 1 109.50000 418.400000
6881 14680 8802 1 109.50000 418.400000
1504 14681 1638 1 109.50000 418.400000
1504 14681 8437 1 109.50000 418.400000
1504 14681 10056 1 109.50000 418.400000
1638 14681 8437 1 109.50000 418.400000
1638 14681 10056 1 109.50000 418.400000
8437 14681 10056 1 109.50000 418.400000
4020 14682 4409 1 109.50000 418.400000
4020 14682 10057 1 109.50000 418.400000
4020 14682 10058 1 109.50000 418.400000
4409 14682 10057 1 109.50000 418.400000
4409 14682 10058 1 109.50000 418.400000
10057 14682 10058 1 109.50000 418.400000
1010 14683 1011 1 109.50000 418.400000
1010 14683 1676 1 109.50000 418.400000
1010 14683 2796 1 109.50000 418.400000
1011 14683 1676 1 109.50000 418.400000
1011 14683 2796 1 109.50000 418.400000
1676 14683 2796 1 109.50000 418.400000
8782 14684 10059 1 109.50000 418.400000
8782 14684 10060 1 109.50000 418.400000
8782 14684 10061 1 109.50000 418.400000
10059 14684 10060 1 109.50000 418.400000
10059 14684 10061 1 109.50000 418.400000
10060 14684 10061 1 109.50000 418.400000
5179 14685 7237 1 109.50000 418.400000
5179 14685 9717 1 109.50000 418.400000
5179 14685 10672 1 109.50000 418.400000
7237 14685 9717 1 109.50000 418.400000
7237 14685 10672 1 109.50000 418.400000
9717 14685 10672 1 109.50000 418.400000
1536 14686 5811 1 109.50000 418.400000
1536 14686 8144 1 109.50000 418.400000
1536 14686 10064 1 109.50000 418.400000
5811 14686 8144 1 109.50000 418.400000
5811 14686 10064 1 109.50000 418.400000
8144 14686 10064 1 109.50000 418.400000
2301 14687 4835 1 109.50000 418.400000
2301 14687 9152 1 109.50000 418.400000
2301 14687 9942 1 109.50000 418.400000
4835 14687 9152 1 109.50000 418.400000
4835 14687 9942 1 109.50000 418.400000
9152 14687 9942 1 109.50000 418.400000
1508 14688 7149 1 109.50000 418.400000
1508 14688 10065 1 109.50000 418.400000
1508 14688 10066 1 109.50000 418.400000
7149 14688 10065 1 109.50000 418.400000
7149 14688 10066 1 109.50000 418.400000
10065 14688 10066 1 109.50000 418.400000
474 14689 6309 1 109.50000 418.400000
474 14689 7446 1 109.50000 418.400000
474 14689 10067 1 109.50000 418.400000
6309 14689 7446 1 109.50000 418.400000
6309 14689 10067 1 109.50000 418.400000
7446 14689 10067 1 109.50000 418.400000
3598 14690 8396 1 109.50000 418.400000
3598 14690 9398 1 109.50000 418.400000
3598 14690 9836 1 109.50000 418.400000
8396 14690 9398 1 109.50000 418.400000
8396 14690 9836 1 109.50000 418.400000
9398 14690 9836 1 109.50000 418.400000
1595 14691 2249 1 109.50000 418.400000
1595 14691 2471 1 109.50000 418.400000
1595 14691 8813 1 109.50000 418.400000
2249 14691 2471 1 109.50000 418.400000
2249 14691 8813 1 109.50000 418.400000
2471 14691 8813 1 109.50000 418.400000
2073 14692 3853 1 109.50000 418.400000
2073 14692 4594 1 109.50000 418.400000
2073 14692 6870 1 109.50000 418.400000
3853 14692 4594 1 109.50000 418.400000
3853 14692 6870 1 109.50000 418.400000
4594 14692 6870 1 109.50000 418.400000
7120 14693 7986 1 109.50000 418.400000
7120 14693 9956 1 109.50000 418.400000
7120 14693 10070 1 109.50000 418.400000
7986 14693 9956 1 109.50000 418.400000
7986 14693 10070 1 109.50000 418.400000
9956 14693 10070 1 109.50000 418.400000
4522 14694 4643 1 109.50000 418.400000
4522 14694 6362 1 109.50000 418.400000
4522 14694 10071 1 109.50000 418.400000
4643 14694 6362 1 109.50000 418.400000
4643 14694 10071 1 109.50000 418.400000
6362 14694 10071 1 109.50000 418.400000
4241 14695 9371 1 109.50000 418.400000
4241 14695 10072 1 109.50000 418.400000
4241 14695 10073 1 109.50000 418.400000
9371 14695 10072 1 109.50000 418.400000
9371 14695 10073 1 109.50000 418.400000
10072 14695 10073 1 109.50000 418.400000
1788 14696 5761 1 109.50000 418.400000
1788 14696 5764 1 109.50000 418.400000
1788 14696 10074 1 109.50000 418.400000
5761 14696 5764 1 109.50000 418.400000
5761 14696 10074 1 109.50000 418.400000
5764 14696 10074 1 109.50000 418.400000
1461 14697 5164 1 109.50000 418.400000
1461 14697 8299 1 109.50000 418.400000
1461 14697 10076 1 109.50000 418.400000
5164 14697 8299 1 109.50000 418.400000
5164 14697 10076 1 109.50000 418.400000
8299 14697 10076 1 109.50000 418.400000
1156 14698 10077 1 109.50000 418.400000
1156 14698 10078 1 109.50000 418.400000
1156 14698 10079 1 109.50000 418.400000
10077 14698 10078 1 109.50000 418.400000
10077 14698 10079 1 109.50000 418.400000
10078 14698 10079 1 109.50000 418.400000
5852 14699 8814 1 109.50000 418.400000
5852 14699 9591 1 109.50000 418.400000
5852 14699 9725 1 109.50000 418.400000
8814 14699 9591 1 109.50000 418.400000
8814 14699 9725 1 109.50000 418.400000
9591 14699 9725 1 109.50000 418.400000
8978 14700 9264 1 109.50000 418.400000
8978 14700 9449 1 109.50000 418.400000
8978 14700 9843 1 109.50000 418.400000
9264 14700 9449 1 109.50000 418.400000
9264 14700 9843 1 109.50000 418.400000
9449 14700 9843 1 109.50000 418.400000
5044 14701 6514 1 109.50000 418.400000
5044 14701 7184 1 109.50000 418.400000
5044 14701 9374 1 109.50000 418.400000
6514 14701 7184 1 109.50000 418.400000
6514 14701 9374 1 109.50000 418.400000
7184 14701 9374 1 109.50000 418.400000
1935 14702 6624 1 109.50000 418.400000
1935 14702 6850 1 109.50000 418.400000
1935 14702 9641 1 109.50000 418.400000
6624 14702 6850 1 109.50000 418.400000
6624 14702 9641 1 109.50000 418.400000
6850 14702 9641 1 109.50000 418.400000
4886 14703 7515 1 109.50000 418.400000
4886 14703 9631 1 109.50000 418.400000
4886 14703 10087 1 109.50000 418.400000
7515 14703 9631 1 109.50000 418.400000
7515 14703 10087 1 109.50000 418.400000
9631 14703 10087 1 109.50000 418.400000
5017 14704 5489 1 109.50000 418.400000
5017 14704 9255 1 109.50000 418.400000
5017 14704 10088 1 109.50000 418.400000
5489 14704 9255 1 109.50000 418.400000
5489 14704 10088 1 109.50000 418.400000
9255 14704 10088 1 109.50000 418.400000
2151 14705 6376 1 109.50000 418.400000
2151 14705 7672 1 109.50000 418.400000
2151 14705 10089 1 109.50000 418.400000
6376 14705 7672 1 109.50000 418.400000
6376 14705 10089 1 109.50000 418.400000
7672 14705 10089 1 109.50000 418.400000
5294 14706 8251 1 109.50000 418.400000
5294 14706 9884 1 109.50000 418.400000
5294 14706 10090 1 109.50000 418.400000
8251 14706 9884 1 109.50000 418.400000
8251 14706 10090 1 109.50000 418.400000
9884 14706 10090 1 109.50000 418.400000
2898 14707 7769 1 109.50000 418.400000
2898 14707 9464 1 109.50000 418.400000
2898 14707 9674 1 109.50000 418.400000
7769 14707 9464 1 109.50000 418.400000
7769 14707 9674 1 109.50000 418.400000
9464 14707 9674 1 109.50000 418.400000
7781 14708 9496 1 109.50000 418.400000
7781 14708 10091 1 109.50000 418.400000
7781 14708 10092 1 109.50000 418.400000
9496 14708 10091 1 109.50000 418.400000
9496 14708 10092 1 109.50000 418.400000
10091 14708 10092 1 109.50000 418.400000
9355 14709 9874 1 109.50000 418.400000
9355 14709 10093 1 109.50000 418.400000
9355 14709 10094 1 109.50000 418.400000
9874 14709 10093 1 109.50000 418.400000
9874 14709 10094 1 109.50000 418.400000
10093 14709 10094 1 109.50000 418.400000
5274 14710 8241 1 109.50000 418.400000
5274 14710 10095 1 109.50000 418.400000
5274 14710 10096 1 109.50000 418.400000
8241 14710 10095 1 109.50000 418.400000
8241 14710 10096 1 109.50000 418.400000
10095 14710 10096 1 109.50000 418.400000
4331 14711 8194 1 109.50000 418.400000
4331 14711 9864 1 109.50000 418.400000
4331 14711 10097 1 109.50000 418.400000
8194 14711 9864 1 109.50000 418.400000
8194 14711 10097 1 109.50000 418.400000
9864 14711 10097 1 109.50000 418.400000
2555 14712 4693 1 109.50000 418.400000
2555 14712 9229 1 109.50000 418.400000
2555 14712 9563 1 109.50000 418.400000
4693 14712 9229 1 109.50000 418.400000
4693 14712 9563 1 109.50000 418.400000
9229 14712 9563 1 109.50000 418.400000
5087 14713 7556 1 109.50000 418.400000
5087 14713 8177 1 109.50000 418.400000
5087 14713 8937 1 109.50000 418.400000
7556 14713 8177 1 109.50000 418.400000
7556 14713 8937 1 109.50000 418.400000
8177 14713 8937 1 109.50000 418.400000
4506 14714 6256 1 109.50000 418.400000
4506 14714 8279 1 109.50000 418.400000
4506 14714 8339 1 109.50000 418.400000
6256 14714 8279 1 109.50000 418.400000
6256 14714 8339 1 109.50000 418.400000
8279 14714 8339 1 109.50000 418.400000
8076 14715 8637 1 109.50000 418.400000
8076 14715 8638 1 109.50000 418.400000
8076 14715 8639 1 109.50000 418.400000
8637 14715 8638 1 109.50000 418.400000
8637 14715 8639 1 109.50000 418.400000
8638 14715 8639 1 109.50000 418.400000
3615 14716 10098 1 109.50000 418.400000
3615 14716 10099 1 109.50000 418.400000
3615 14716 10100 1 109.50000 418.400000
10098 14716 10099 1 109.50000 418.400000
10098 14716 10100 1 109.50000 418.400000
10099 14716 10100 1 109.50000 418.400000
5529 14717 6018 1 109.50000 418.400000
5529 14717 8936 1 109.50000 418.400000
5529 14717 10101 1 109.50000 418.400000
6018 14717 8936 1 109.50000 418.400000
6018 14717 10101 1 109.50000 418.400000
8936 14717 10101 1 109.50000 418.400000
2955 14718 4387 1 109.50000 418.400000
2955 14718 10102 1 109.50000 418.400000
2955 14718 10103 1 109.50000 418.400000
4387 14718 10102 1 109.50000 418.400000
4387 14718 10103 1 109.50000 418.400000
10102 14718 10103 1 109.50000 418.400000
568 14719 2239 1 109.50000 418.400000
568 14719 7509 1 109.50000 418.400000
568 14719 11169 1 109.50000 418.400000
2239 14719 7509 1 109.50000 418.400000
2239 14719 11169 1 109.50000 418.400000
7509 14719 11169 1 109.50000 418.400000
670 14720 4937 1 109.50000 418.400000
670 14720 4939 1 109.50000 418.400000
670 14720 9314 1 109.50000 418.400000
4937 14720 4939 1 109.50000 418.400000
4937 14720 9314 1 109.50000 418.400000
4939 14720 9314 1 109.50000 418.400000
763 14721 4095 1 109.50000 418.400000
763 14721 9273 1 109.50000 418.400000
763 14721 10106 1 109.50000 418.400000
4095 14721 9273 1 109.50000 418.400000
4095 14721 10106 1 109.50000 418.400000
9273 14721 10106 1 109.50000 418.400000
3163 14722 5783 1 109.50000 418.400000
3163 14722 9071 1 109.50000 418.400000
3163 14722 10107 1 109.50000 418.400000
5783 14722 9071 1 109.50000 418.400000
5783 14722 10107 1 109.50000 418.400000
9071 14722 10107 1 109.50000 418.400000
2264 14723 4328 1 109.50000 418.400000
2264 14723 10108 1 109.50000 418.400000
2264 14723 10109 1 109.50000 418.400000
4328 14723 10108 1 109.50000 418.400000
4328 14723 10109 1 109.50000 418.400000
10108 14723 10109 1 109.50000 418.400000
9097 14724 9564 1 109.50000 418.400000
9097 14724 10110 1 109.50000 418.400000
9097 14724 10111 1 109.50000 418.400000
9564 14724 10110 1 109.50000 418.400000
9564 14724 10111 1 109.50000 418.400000
10110 14724 10111 1 109.50000 418.400000
1383 14725 8673 1 109.50000 418.400000
1383 14725 10112 1 109.50000 418.400000
1383 14725 10113 1 109.50000 418.400000
8673 14725 10112 1 109.50000 418.400000
8673 14725 10113 1 109.50000 418.400000
10112 14725 10113 1 109.50000 418.400000
2775 14726 8475 1 109.50000 418.400000
2775 14726 9067 1 109.50000 418.400000
2775 14726 10114 1 109.50000 418.400000
8475 14726 9067 1 109.50000 418.400000
8475 14726 10114 1 109.50000 418.400000
9067 14726 10114 1 109.50000 418.400000
2939 14727 10000 1 109.50000 418.400000
2939 14727 10115 1 109.50000 418.400000
2939 14727 10116 1 109.50000 418.400000
10000 14727 10115 1 109.50000 418.400000
10000 14727 10116 1 109.50000 418.400000
10115 14727 10116 1 109.50000 418.400000
28 14728 1208 1 109.50000 418.400000
28 14728 10117 1 109.50000 418.400000
28 14728 10118 1 109.50000 418.400000
1208 14728 10117 1 109.50000 418.400000
1208 14728 10118 1 109.50000 418.400000
10117 14728 10118 1 109.50000 418.400000
1367 14729 5744 1 109.50000 418.400000
1367 14729 8355 1 109.50000 418.400000
1367 14729 8558 1 109.50000 418.400000
5744 14729 8355 1 109.50000 418.400000
5744 14729 8558 1 109.50000 418.400000
8355 14729 8558 1 109.50000 418.400000
1441 14730 4269 1 109.50000 418.400000
1441 14730 9981 1 109.50000 418.400000
1441 14730 10120 1 109.50000 418.400000
4269 14730 9981 1 109.50000 418.400000
4269 14730 10120 1 109.50000 418.400000
9981 14730 10120 1 109.50000 418.400000
3507 14731 7330 1 109.50000 418.400000
3507 14731 8286 1 109.50000 418.400000
3507 14731 9267 1 109.50000 418.400000
7330 14731 8286 1 109.50000 418.400000
7330 14731 9267 1 109.50000 418.400000
8286 14731 9267 1 109.50000 418.400000
2801 14732 4187 1 109.50000 418.400000
2801 14732 9736 1 109.50000 418.400000
2801 14732 10122 1 109.50000 418.400000
4187 14732 9736 1 109.50000 418.400000
4187 14732 10122 1 109.50000 418.400000
9736 14732 10122 1 109.50000 418.400000
3822 14733 5243 1 109.50000 418.400000
3822 14733 9343 1 109.50000 418.400000
3822 14733 10123 1 109.50000 418.400000
5243 14733 9343 1 109.50000 418.400000
5243 14733 10123 1 109.50000 418.400000
9343 14733 10123 1 109.50000 418.400000
148 14734 150 1 109.50000 418.400000
148 14734 1489 1 109.50000 418.400000
148 14734 7074 1 109.50000 418.400000
150 14734 1489 1 109.50000 418.400000
150 14734 7074 1 109.50000 418.400000
1489 14734 7074 1 109.50000 418.400000
8055 14735 10010 1 109.50000 418.400000
8055 14735 10125 1 109.50000 418.400000
8055 14735 10126 1 109.50000 418.400000
10010 14735 10125 1 109.50000 418.400000
10010 14735 10126 1 109.50000 418.400000
10125 14735 10126 1 109.50000 418.400000
3512 14736 4572 1 109.50000 418.400000
3512 14736 8833 1 109.50000 418.400000
3512 14736 10127 1 109.50000 418.400000
4572 14736 8833 1 109.50000 418.400000
4572 14736 10127 1 109.50000 418.400000
8833 14736 10127 1 109.50000 418.400000
2774 14737 4824 1 109.50000 418.400000
2774 14737 8269 1 109.50000 418.400000
2774 14737 10128 1 109.50000 418.400000
4824 14737 8269 1 109.50000 418.400000
4824 14737 10128 1 109.50000 418.400000
8269 14737 10128 1 109.50000 418.400000
6682 14738 7617 1 109.50000 418.400000
6682 14738 8455 1 109.50000 418.400000
6682 14738 9870 1 109.50000 418.400000
7617 14738 8455 1 109.50000 418.400000
7617 14738 9870 1 109.50000 418.400000
8455 14738 9870 1 109.50000 418.400000
1072 14739 8724 1 109.50000 418.400000
1072 14739 10129 1 109.50000 418.400000
1072 14739 10130 1 109.50000 418.400000
8724 14739 10129 1 109.50000 418.400000
8724 14739 10130 1 109.50000 418.400000
10129 14739 10130 1 109.50000 418.400000
3659 14740 3663 1 109.50000 418.400000
3659 14740 9347 1 109.50000 418.400000
3659 14740 10131 1 109.50000 418.400000
3663 14740 9347 1 109.50000 418.400000
3663 14740 10131 1 109.50000 418.400000
9347 14740 10131 1 109.50000 418.400000
10132 14741 10133 1 109.50000 418.400000
10132 14741 10134 1 109.50000 418.400000
10132 14741 10135 1 109.50000 418.400000
10133 14741 10134 1 109.50000 418.400000
10133 14741 10135 1 109.50000 418.400000
10134 14741 10135 1 109.50000 418.400000
7808 14742 8759 1 109.50000 418.400000
7808 14742 9331 1 109.50000 418.400000
7808 14742 10136 1 109.50000 418.400000
8759 14742 9331 1 109.50000 418.400000
8759 14742 10136 1 109.50000 418.400000
9331 14742 10136 1 109.50000 418.400000
1402 14743 4903 1 109.50000 418.400000
1402 14743 10110 1 109.50000 418.400000
1402 14743 10137 1 109.50000 418.400000
4903 14743 10110 1 109.50000 418.400000
4903 14743 10137 1 109.50000 418.400000
10110 14743 10137 1 109.50000 418.400000
2038 14744 6699 1 109.50000 418.400000
2038 14744 10118 1 109.50000 418.400000
2038 14744 10138 1 109.50000 418.400000
6699 14744 10118 1 109.50000 418.400000
6699 14744 10138 1 109.50000 418.400000
10118 14744 10138 1 109.50000 418.400000
2987 14745 7606 1 109.50000 418.400000
2987 14745 7673 1 109.50000 418.400000
2987 14745 10114 1 109.50000 418.400000
7606 14745 7673 1 109.50000 418.400000
7606 14745 10114 1 109.50000 418.400000
7673 14745 10114 1 109.50000 418.400000
1478 14746 1918 1 109.50000 418.400000
1478 14746 7912 1 109.50000 418.400000
1478 14746 10139 1 109.50000 418.400000
1918 14746 7912 1 109.50000 418.400000
1918 14746 10139 1 109.50000 418.400000
7912 14746 10139 1 109.50000 418.400000
4151 14747 5884 1 109.50000 418.400000
4151 14747 8645 1 109.50000 418.400000
4151 14747 10021 1 109.50000 418.400000
5884 14747 8645 1 109.50000 418.400000
5884 14747 10021 1 109.50000 418.400000
8645 14747 10021 1 109.50000 418.400000
672 14748 6966 1 109.50000 418.400000
672 14748 7069 1 109.50000 418.400000
672 14748 10094 1 109.50000 418.400000
6966 14748 7069 1 109.50000 418.400000
6966 14748 10094 1 109.50000 418.400000
7069 14748 10094 1 109.50000 418.400000
2938 14749 7391 1 109.50000 418.400000
2938 14749 8983 1 109.50000 418.400000
2938 14749 10142 1 109.50000 418.400000
7391 14749 8983 1 109.50000 418.400000
7391 14749 10142 1 109.50000 418.400000
8983 14749 10142 1 109.50000 418.400000
3643 14750 10145 1 109.50000 418.400000
3643 14750 10146 1 109.50000 418.400000
3643 14750 10147 1 109.50000 418.400000
10145 14750 10146 1 109.50000 418.400000
10145 14750 10147 1 109.50000 418.400000
10146 14750 10147 1 109.50000 418.400000
4966 14751 6647 1 109.50000 418.400000
4966 14751 9544 1 109.50000 418.400000
4966 14751 9592 1 109.50000 418.400000
6647 14751 9544 1 109.50000 418.400000
6647 14751 9592 1 109.50000 418.400000
9544 14751 9592 1 109.50000 418.400000
4796 14752 4803 1 109.50000 418.400000
4796 14752 8838 1 109.50000 418.400000
4796 14752 10151 1 109.50000 418.400000
4803 14752 8838 1 109.50000 418.400000
4803 14752 10151 1 109.50000 418.400000
8838 14752 10151 1 109.50000 418.400000
3241 14753 5109 1 109.50000 418.400000
3241 14753 6990 1 109.50000 418.400000
3241 14753 10152 1 109.50000 418.400000
5109 14753 6990 1 109.50000 418.400000
5109 14753 10152 1 109.50000 418.400000
6990 14753 10152 1 109.50000 418.400000
4714 14754 5147 1 109.50000 418.400000
4714 14754 8135 1 109.50000 418.400000
4714 14754 9758 1 109.50000 418.400000
5147 14754 8135 1 109.50000 418.400000
5147 14754 9758 1 109.50000 418.400000
8135 14754 9758 1 109.50000 418.400000
7730 14755 8908 1 109.50000 418.400000
7730 14755 10153 1 109.50000 418.400000
7730 14755 10154 1 109.50000 418.400000
8908 14755 10153 1 109.50000 418.400000
8908 14755 10154 1 109.50000 418.400000
10153 14755 10154 1 109.50000 418.400000
1749 14756 5021 1 109.50000 418.400000
1749 14756 6740 1 109.50000 418.400000
1749 14756 10155 1 109.50000 418.400000
5021 14756 6740 1 109.50000 418.400000
5021 14756 10155 1 109.50000 418.400000
6740 14756 10155 1 109.50000 418.400000
6730 14757 7205 1 109.50000 418.400000
6730 14757 8646 1 109.50000 418.400000
6730 14757 10157 1 109.50000 418.400000
7205 14757 8646 1 109.50000 418.400000
7205 14757 10157 1 109.50000 418.400000
8646 14757 10157 1 109.50000 418.400000
202 14758 204 1 109.50000 418.400000
202 14758 9061 1 109.50000 418.400000
202 14758 10158 1 109.50000 418.400000
204 14758 9061 1 109.50000 418.400000
204 14758 10158 1 109.50000 418.400000
9061 14758 10158 1 109.50000 418.400000
1691 14759 7476 1 109.50000 418.400000
1691 14759 7658 1 109.50000 418.400000
1691 14759 10159 1 109.50000 418.400000
7476 14759 7658 1 109.50000 418.400000
7476 14759 10159 1 109.50000 418.400000
7658 14759 10159 1 109.50000 418.400000
3558 14760 6982 1 109.50000 418.400000
3558 14760 9039 1 109.50000 418.400000
3558 14760 10160 1 109.50000 418.400000
6982 14760 9039 1 109.50000 418.400000
6982 14760 10160 1 109.50000 418.400000
9039 14760 10160 1 109.50000 418.400000
1551 14761 6919 1 109.50000 418.400000
1551 14761 7629 1 109.50000 418.400000
1551 14761 9916 1 109.50000 418.400000
6919 14761 7629 1 109.50000 418.400000
6919 14761 9916 1 109.50000 418.400000
7629 14761 9916 1 109.50000 418.400000
1169 14762 8083 1 109.50000 418.400000
1169 14762 10161 1 109.50000 418.400000
1169 14762 10162 1 109.50000 418.400000
8083 14762 10161 1 109.50000 418.400000
8083 14762 10162 1 109.50000 418.400000
10161 14762 10162 1 109.50000 418.400000
1710 14763 4872 1 109.50000 418.400000
1710 14763 10163 1 109.50000 418.400000
1710 14763 10164 1 109.50000 418.400000
4872 14763 10163 1 109.50000 418.400000
4872 14763 10164 1 109.50000 418.400000
10163 14763 10164 1 109.50000 418.400000
2900 14764 4765 1 109.50000 418.400000
2900 14764 7051 1 109.50000 418.400000
2900 14764 9490 1 109.50000 418.400000
4765 14764 7051 1 109.50000 418.400000
4765 14764 9490 1 109.50000 418.400000
7051 14764 9490 1 109.50000 418.400000
1807 14765 4537 1 109.50000 418.400000
1807 14765 8134 1 109.50000 418.400000
1807 14765 10166 1 109.50000 418.400000
4537 14765 8134 1 109.50000 418.400000
4537 14765 10166 1 109.50000 418.400000
8134 14765 10166 1 109.50000 418.400000
3160 14766 6509 1 109.50000 418.400000
3160 14766 8478 1 109.50000 418.400000
3160 14766 10167 1 109.50000 418.400000
6509 14766 8478 1 109.50000 418.400000
6509 14766 10167 1 109.50000 418.400000
8478 14766 10167 1 109.50000 418.400000
4874 14767 7305 1 109.50000 418.400000
4874 14767 10168 1 109.50000 418.400000
4874 14767 10169 1 109.50000 418.400000
7305 14767 10168 1 109.50000 418.400000
7305 14767 10169 1 109.50000 418.400000
10168 14767 10169 1 109.50000 418.400000
8955 14768 9466 1 109.50000 418.400000
8955 14768 9865 1 109.50000 418.400000
8955 14768 10170 1 109.50000 418.400000
9466 14768 9865 1 109.50000 418.400000
9466 14768 10170 1 109.50000 418.400000
9865 14768 10170 1 109.50000 418.400000
2491 14769 2492 1 109.50000 418.400000
2491 14769 10120 1 109.50000 418.400000
2491 14769 10171 1 109.50000 418.400000
2492 14769 10120 1 109.50000 418.400000
2492 14769 10171 1 109.50000 418.400000
10120 14769 10171 1 109.50000 418.400000
6482 14770 7424 1 109.50000 418.400000
6482 14770 10172 1 109.50000 418.400000
6482 14770 10173 1 109.50000 418.400000
7424 14770 10172 1 109.50000 418.400000
7424 14770 10173 1 109.50000 418.400000
10172 14770 10173 1 109.50000 418.400000
2024 14771 2230 1 109.50000 418.400000
2024 14771 9915 1 109.50000 418.400000
2024 14771 10174 1 109.50000 418.400000
2230 14771 9915 1 109.50000 418.400000
2230 14771 10174 1 109.50000 418.400000
9915 14771 10174 1 109.50000 418.400000
8667 14772 10175 1 109.50000 418.400000
8667 14772 10176 1 109.50000 418.400000
8667 14772 10698 1 109.50000 418.400000
10175 14772 10176 1 109.50000 418.400000
10175 14772 10698 1 109.50000 418.400000
10176 14772 10698 1 109.50000 418.400000
8191 14773 9515 1 109.50000 418.400000
8191 14773 10071 1 109.50000 418.400000
8191 14773 10177 1 109.50000 418.400000
9515 14773 10071 1 109.50000 418.400000
9515 14773 10177 1 109.50000 418.400000
10071 14773 10177 1 109.50000 418.400000
2813 14774 10178 1 109.50000 418.400000
2813 14774 10179 1 109.50000 418.400000
2813 14774 10180 1 109.50000 418.400000
10178 14774 10179 1 109.50000 418.400000
10178 14774 10180 1 109.50000 418.400000
10179 14774 10180 1 109.50000 418.400000
2552 14775 6563 1 109.50000 418.400000
2552 14775 8620 1 109.50000 418.400000
2552 14775 9635 1 109.50000 418.400000
6563 14775 8620 1 109.50000 418.400000
6563 14775 9635 1 109.50000 418.400000
8620 14775 9635 1 109.50000 418.400000
10116 14776 10129 1 109.50000 418.400000
10116 14776 10181 1 109.50000 418.400000
10116 14776 10182 1 109.50000 418.400000
10129 14776 10181 1 109.50000 418.400000
10129 14776 10182 1 109.50000 418.400000
10181 14776 10182 1 109.50000 418.400000
8685 14777 9800 1 109.50000 418.400000
8685 14777 10183 1 109.50000 418.400000
8685 14777 10184 1 109.50000 418.400000
9800 14777 10183 1 109.50000 418.400000
9800 14777 10184 1 109.50000 418.400000
10183 14777 10184 1 109.50000 418.400000
689 14778 1731 1 109.50000 418.400000
689 14778 3421 1 109.50000 418.400000
689 14778 10186 1 109.50000 418.400000
1731 14778 3421 1 109.50000 418.400000
1731 14778 10186 1 109.50000 418.400000
3421 14778 10186 1 109.50000 418.400000
2002 14779 4710 1 109.50000 418.400000
2002 14779 10187 1 109.50000 418.400000
2002 14779 10188 1 109.50000 418.400000
4710 14779 10187 1 109.50000 418.400000
4710 14779 10188 1 109.50000 418.400000
10187 14779 10188 1 109.50000 418.400000
9547 14780 9621 1 109.50000 418.400000
9547 14780 10055 1 109.50000 418.400000
9547 14780 10189 1 109.50000 418.400000
9621 14780 10055 1 109.50000 418.400000
9621 14780 10189 1 109.50000 418.400000
10055 14780 10189 1 109.50000 418.400000
8415 14781 8662 1 109.50000 418.400000
8415 14781 10190 1 109.50000 418.400000
8415 14781 10191 1 109.50000 418.400000
8662 14781 10190 1 109.50000 418.400000
8662 14781 10191 1 109.50000 418.400000
10190 14781 10191 1 109.50000 418.400000
2918 14782 5617 1 109.50000 418.400000
2918 14782 10192 1 109.50000 418.400000
2918 14782 10193 1 109.50000 418.400000
5617 14782 10192 1 109.50000 418.400000
5617 14782 10193 1 109.50000 418.400000
10192 14782 10193 1 109.50000 418.400000
5610 14783 9176 1 109.50000 418.400000
5610 14783 10194 1 109.50000 418.400000
5610 14783 11022 1 109.50000 418.400000
9176 14783 10194 1 109.50000 418.400000
9176 14783 11022 1 109.50000 418.400000
10194 14783 11022 1 109.50000 418.400000
2582 14784 6198 1 109.50000 418.400000
2582 14784 10196 1 109.50000 418.400000
2582 14784 10197 1 109.50000 418.400000
6198 14784 10196 1 109.50000 418.400000
6198 14784 10197 1 109.50000 418.400000
10196 14784 10197 1 109.50000 418.400000
5929 14785 7029 1 109.50000 418.400000
5929 14785 9046 1 109.50000 418.400000
5929 14785 10198 1 109.50000 418.400000
7029 14785 9046 1 109.50000 418.400000
7029 14785 10198 1 109.50000 418.400000
9046 14785 10198 1 109.50000 418.400000
564 14786 7340 1 109.50000 418.400000
564 14786 9666 1 109.50000 418.400000
564 14786 10200 1 109.50000 418.400000
7340 14786 9666 1 109.50000 418.400000
7340 14786 10200 1 109.50000 418.400000
9666 14786 10200 1 109.50000 418.400000
8586 14787 9502 1 109.50000 418.400000
8586 14787 10201 1 109.50000 418.400000
8586 14787 10202 1 109.50000 418.400000
9502 14787 10201 1 109.50000 418.400000
9502 14787 10202 1 109.50000 418.400000
10201 14787 10202 1 109.50000 418.400000
324 14788 6293 1 109.50000 418.400000
324 14788 7527 1 109.50000 418.400000
324 14788 10203 1 109.50000 418.400000
6293 14788 7527 1 109.50000 418.400000
6293 14788 10203 1 109.50000 418.400000
7527 14788 10203 1 109.50000 418.400000
829 14789 5508 1 109.50000 418.400000
829 14789 7013 1 109.50000 418.400000
829 14789 10204 1 109.50000 418.400000
5508 14789 7013 1 109.50000 418.400000
5508 14789 10204 1 109.50000 418.400000
7013 14789 10204 1 109.50000 418.400000
3496 14790 5793 1 109.50000 418.400000
3496 14790 9980 1 109.50000 418.400000
3496 14790 10205 1 109.50000 418.400000
5793 14790 9980 1 109.50000 418.400000
5793 14790 10205 1 109.50000 418.400000
9980 14790 10205 1 109.50000 418.400000
1297 14791 1786 1 109.50000 418.400000
1297 14791 8748 1 109.50000 418.400000
1297 14791 8751 1 109.50000 418.400000
1786 14791 8748 1 109.50000 418.400000
1786 14791 8751 1 109.50000 418.400000
8748 14791 8751 1 109.50000 418.400000
4141 14792 10206 1 109.50000 418.400000
4141 14792 10207 1 109.50000 418.400000
4141 14792 10208 1 109.50000 418.400000
10206 14792 10207 1 109.50000 418.400000
10206 14792 10208 1 109.50000 418.400000
10207 14792 10208 1 109.50000 418.400000
2573 14793 7282 1 109.50000 418.400000
2573 14793 10209 1 109.50000 418.400000
2573 14793 10210 1 109.50000 418.400000
7282 14793 10209 1 109.50000 418.400000
7282 14793 10210 1 109.50000 418.400000
10209 14793 10210 1 109.50000 418.400000
3808 14794 6865 1 109.50000 418.400000
3808 14794 10211 1 109.50000 418.400000
3808 14794 10212 1 109.50000 418.400000
6865 14794 10211 1 109.50000 418.400000
6865 14794 10212 1 109.50000 418.400000
10211 14794 10212 1 109.50000 418.400000
5730 14795 6508 1 109.50000 418.400000
5730 14795 10214 1 109.50000 418.400000
5730 14795 10215 1 109.50000 418.400000
6508 14795 10214 1 109.50000 418.400000
6508 14795 10215 1 109.50000 418.400000
10214 14795 10215 1 109.50000 418.400000
7145 14796 8176 1 109.50000 418.400000
7145 14796 8599 1 109.50000 418.400000
7145 14796 10216 1 109.50000 418.400000
8176 14796 8599 1 109.50000 418.400000
8176 14796 10216 1 109.50000 418.400000
8599 14796 10216 1 109.50000 418.400000
4162 14797 8999 1 109.50000 418.400000
4162 14797 9114 1 109.50000 418.400000
4162 14797 10217 1 109.50000 418.400000
8999 14797 9114 1 109.50000 418.400000
8999 14797 10217 1 109.50000 418.400000
9114 14797 10217 1 109.50000 418.400000
9366 14798 9918 1 109.50000 418.400000
9366 14798 10218 1 109.50000 418.400000
9366 14798 10219 1 109.50000 418.400000
9918 14798 10218 1 109.50000 418.400000
9918 14798 10219 1 109.50000 418.400000
10218 14798 10219 1 109.50000 418.400000
7835 14799 10220 1 109.50000 418.400000
7835 14799 10221 1 109.50000 418.400000
7835 14799 10222 1 109.50000 418.400000
10220 14799 10221 1 109.50000 418.400000
10220 14799 10222 1 109.50000 418.400000
10221 14799 10222 1 109.50000 418.400000
2063 14800 2912 1 109.50000 418.400000
2063 14800 4049 1 109.50000 418.400000
2063 14800 10223 1 109.50000 418.400000
2912 14800 4049 1 109.50000 418.400000
2912 14800 10223 1 109.50000 418.400000
4049 14800 10223 1 109.50000 418.400000
337 14801 9438 1 109.50000 418.400000
337 14801 9681 1 109.50000 418.400000
337 14801 10224 1 109.50000 418.400000
9438 14801 9681 1 109.50000 418.400000
9438 14801 10224 1 109.50000 418.400000
9681 14801 10224 1 109.50000 418.400000
6911 14802 10225 1 109.50000 418.400000
6911 14802 10226 1 109.50000 418.400000
6911 14802 10227 1 109.50000 418.400000
10225 14802 10226 1 109.50000 418.400000
10225 14802 10227 1 109.50000 418.400000
10226 14802 10227 1 109.50000 418.400000
2677 14803 4234 1 109.50000 418.400000
2677 14803 7831 1 109.50000 418.400000
2677 14803 10228 1 109.50000 418.400000
4234 14803 7831 1 109.50000 418.400000
4234 14803 10228 1 109.50000 418.400000
7831 14803 10228 1 109.50000 418.400000
6238 14804 10197 1 109.50000 418.400000
6238 14804 10229 1 109.50000 418.400000
6238 14804 11247 1 109.50000 418.400000
10197 14804 10229 1 109.50000 418.400000
10197 14804 11247 1 109.50000 418.400000
10229 14804 11247 1 109.50000 418.400000
6936 14805 8288 1 109.50000 418.400000
6936 14805 9824 1 109.50000 418.400000
6936 14805 10231 1 109.50000 418.400000
8288 14805 9824 1 109.50000 418.400000
8288 14805 10231 1 109.50000 418.400000
9824 14805 10231 1 109.50000 418.400000
5588 14806 9684 1 109.50000 418.400000
5588 14806 10232 1 109.50000 418.400000
5588 14806 10233 1 109.50000 418.400000
9684 14806 10232 1 109.50000 418.400000
9684 14806 10233 1 109.50000 418.400000
10232 14806 10233 1 109.50000 418.400000
9535 14807 9571 1 109.50000 418.400000
9535 14807 10234 1 109.50000 418.400000
9535 14807 10235 1 109.50000 418.400000
9571 14807 10234 1 109.50000 418.400000
9571 14807 10235 1 109.50000 418.400000
10234 14807 10235 1 109.50000 418.400000
3807 14808 3965 1 109.50000 418.400000
3807 14808 10236 1 109.50000 418.400000
3807 14808 10237 1 109.50000 418.400000
3965 14808 10236 1 109.50000 418.400000
3965 14808 10237 1 109.50000 418.400000
10236 14808 10237 1 109.50000 418.400000
930 14809 6904 1 109.50000 418.400000
930 14809 7923 1 109.50000 418.400000
930 14809 8626 1 109.50000 418.400000
6904 14809 7923 1 109.50000 418.400000
6904 14809 8626 1 109.50000 418.400000
7923 14809 8626 1 109.50000 418.400000
8985 14810 10238 1 109.50000 418.400000
8985 14810 10239 1 109.50000 418.400000
8985 14810 11234 1 109.50000 418.400000
10238 14810 10239 1 109.50000 418.400000
10238 14810 11234 1 109.50000 418.400000
10239 14810 11234 1 109.50000 418.400000
346 14811 9214 1 109.50000 418.400000
346 14811 10240 1 109.50000 418.400000
346 14811 10241 1 109.50000 418.400000
9214 14811 10240 1 109.50000 418.400000
9214 14811 10241 1 109.50000 418.400000
10240 14811 10241 1 109.50000 418.400000
1560 14812 8325 1 109.50000 418.400000
1560 14812 10242 1 109.50000 418.400000
1560 14812 10243 1 109.50000 418.400000
8325 14812 10242 1 109.50000 418.400000
8325 14812 10243 1 109.50000 418.400000
10242 14812 10243 1 109.50000 418.400000
715 14813 3617 1 109.50000 418.400000
715 14813 4542 1 109.50000 418.400000
715 14813 10244 1 109.50000 418.400000
3617 14813 4542 1 109.50000 418.400000
3617 14813 10244 1 109.50000 418.400000
4542 14813 10244 1 109.50000 418.400000
3307 14814 3830 1 109.50000 418.400000
3307 14814 4574 1 109.50000 418.400000
3307 14814 4914 1 109.50000 418.400000
3830 14814 4574 1 109.50000 418.400000
3830 14814 4914 1 109.50000 418.400000
4574 14814 4914 1 109.50000 418.400000
119 14815 8154 1 109.50000 418.400000
119 14815 8156 1 109.50000 418.400000
119 14815 10245 1 109.50000 418.400000
8154 14815 8156 1 109.50000 418.400000
8154 14815 10245 1 109.50000 418.400000
8156 14815 10245 1 109.50000 418.400000
1243 14816 8926 1 109.50000 418.400000
1243 14816 9925 1 109.50000 418.400000
1243 14816 10246 1 109.50000 418.400000
8926 14816 9925 1 109.50000 418.400000
8926 14816 10246 1 109.50000 418.400000
9925 14816 10246 1 109.50000 418.400000
1409 14817 1410 1 109.50000 418.400000
1409 14817 9559 1 109.50000 418.400000
1409 14817 10247 1 109.50000 418.400000
1410 14817 9559 1 109.50000 418.400000
1410 14817 10247 1 109.50000 418.400000
9559 14817 10247 1 109.50000 418.400000
1131 14818 6727 1 109.50000 418.400000
1131 14818 10248 1 109.50000 418.400000
1131 14818 10249 1 109.50000 418.400000
6727 14818 10248 1 109.50000 418.400000
6727 14818 10249 1 109.50000 418.400000
10248 14818 10249 1 109.50000 418.400000
3466 14819 8070 1 109.50000 418.400000
3466 14819 9893 1 109.50000 418.400000
3466 14819 10250 1 109.50000 418.400000
8070 14819 9893 1 109.50000 418.400000
8070 14819 10250 1 109.50000 418.400000
9893 14819 10250 1 109.50000 418.400000
3660 14820 9848 1 109.50000 418.400000
3660 14820 10251 1 109.50000 418.400000
3660 14820 10252 1 109.50000 418.400000
9848 14820 10251 1 109.50000 418.400000
9848 14820 10252 1 109.50000 418.400000
10251 14820 10252 1 109.50000 418.400000
1704 14821 8189 1 109.50000 418.400000
1704 14821 10253 1 109.50000 418.400000
1704 14821 10254 1 109.50000 418.400000
8189 14821 10253 1 109.50000 418.400000
8189 14821 10254 1 109.50000 418.400000
10253 14821 10254 1 109.50000 418.400000
2020 14822 4352 1 109.50000 418.400000
2020 14822 7594 1 109.50000 418.400000
2020 14822 8898 1 109.50000 418.400000
4352 14822 7594 1 109.50000 418.400000
4352 14822 8898 1 109.50000 418.400000
7594 14822 8898 1 109.50000 418.400000
3044 14823 6281 1 109.50000 418.400000
3044 14823 10112 1 109.50000 418.400000
3044 14823 10255 1 109.50000 418.400000
6281 14823 10112 1 109.50000 418.400000
6281 14823 10255 1 109.50000 418.400000
10112 14823 10255 1 109.50000 418.400000
7152 14824 9463 1 109.50000 418.400000
7152 14824 10256 1 109.50000 418.400000
7152 14824 10257 1 109.50000 418.400000
9463 14824 10256 1 109.50000 418.400000
9463 14824 10257 1 109.50000 418.400000
10256 14824 10257 1 109.50000 418.400000
5499 14825 5731 1 109.50000 418.400000
5499 14825 8074 1 109.50000 418.400000
5499 14825 9498 1 109.50000 418.400000
5731 14825 8074 1 109.50000 418.400000
5731 14825 9498 1 109.50000 418.400000
8074 14825 9498 1 109.50000 418.400000
7110 14826 8881 1 109.50000 418.400000
7110 14826 9712 1 109.50000 418.400000
7110 14826 10258 1 109.50000 418.400000
8881 14826 9712 1 109.50000 418.400000
8881 14826 10258 1 109.50000 418.400000
9712 14826 10258 1 109.50000 418.400000
80 14827 9024 1 109.50000 418.400000
80 14827 9662 1 109.50000 418.400000
80 14827 9698 1 109.50000 418.400000
9024 14827 9662 1 109.50000 418.400000
9024 14827 9698 1 109.50000 418.400000
9662 14827 9698 1 109.50000 418.400000
8717 14828 9477 1 109.50000 418.400000
8717 14828 10260 1 109.50000 418.400000
8717 14828 10261 1 109.50000 418.400000
9477 14828 10260 1 109.50000 418.400000
9477 14828 10261 1 109.50000 418.400000
10260 14828 10261 1 109.50000 418.400000
358 14829 3823 1 109.50000 418.400000
358 14829 9796 1 109.50000 418.400000
358 14829 10262 1 109.50000 418.400000
3823 14829 9796 1 109.50000 418.400000
3823 14829 10262 1 109.50000 418.400000
9796 14829 10262 1 109.50000 418.400000
1463 14830 8906 1 109.50000 418.400000
1463 14830 10263 1 109.50000 418.400000
1463 14830 10264 1 109.50000 418.400000
8906 14830 10263 1 109.50000 418.400000
8906 14830 10264 1 109.50000 418.400000
10263 14830 10264 1 109.50000 418.400000
3995 14831 6071 1 109.50000 418.400000
3995 14831 10265 1 109.50000 418.400000
3995 14831 11208 1 109.50000 418.400000
6071 14831 10265 1 109.50000 418.400000
6071 14831 11208 1 109.50000 418.400000
10265 14831 11208 1 109.50000 418.400000
3055 14832 5891 1 109.50000 418.400000
3055 14832 10266 1 109.50000 418.400000
3055 14832 10267 1 109.50000 418.400000
5891 14832 10266 1 109.50000 418.400000
5891 14832 10267 1 109.50000 418.400000
10266 14832 10267 1 109.50000 418.400000
6246 14833 9967 1 109.50000 418.400000
6246 14833 10268 1 109.50000 418.400000
6246 14833 10269 1 109.50000 418.400000
9967 14833 10268 1 109.50000 418.400000
9967 14833 10269 1 109.50000 418.400000
10268 14833 10269 1 109.50000 418.400000
1467 14834 1709 1 109.50000 418.400000
1467 14834 6817 1 109.50000 418.400000
1467 14834 8200 1 109.50000 418.400000
1709 14834 6817 1 109.50000 418.400000
1709 14834 8200 1 109.50000 418.400000
6817 14834 8200 1 109.50000 418.400000
6927 14835 8877 1 109.50000 418.400000
6927 14835 10270 1 109.50000 418.400000
6927 14835 10271 1 109.50000 418.400000
8877 14835 10270 1 109.50000 418.400000
8877 14835 10271 1 109.50000 418.400000
10270 14835 10271 1 109.50000 418.400000
6436 14836 6949 1 109.50000 418.400000
6436 14836 8390 1 109.50000 418.400000
6436 14836 10273 1 109.50000 418.400000
6949 14836 8390 1 109.50000 418.400000
6949 14836 10273 1 109.50000 418.400000
8390 14836 10273 1 109.50000 418.400000
3875 14837 4255 1 109.50000 418.400000
3875 14837 9754 1 109.50000 418.400000
3875 14837 10088 1 109.50000 418.400000
4255 14837 9754 1 109.50000 418.400000
4255 14837 10088 1 109.50000 418.400000
9754 14837 10088 1 109.50000 418.400000
1549 14838 3715 1 109.50000 418.400000
1549 14838 3791 1 109.50000 418.400000
1549 14838 6576 1 109.50000 418.400000
3715 14838 3791 1 109.50000 418.400000
3715 14838 6576 1 109.50000 418.400000
3791 14838 6576 1 109.50000 418.400000
251 14839 1712 1 109.50000 418.400000
251 14839 9190 1 109.50000 418.400000
251 14839 10274 1 109.50000 418.400000
1712 14839 9190 1 109.50000 418.400000
1712 14839 10274 1 109.50000 418.400000
9190 14839 10274 1 109.50000 418.400000
4958 14840 6285 1 109.50000 418.400000
4958 14840 7888 1 109.50000 418.400000
4958 14840 8655 1 109.50000 418.400000
6285 14840 7888 1 109.50000 418.400000
6285 14840 8655 1 109.50000 418.400000
7888 14840 8655 1 109.50000 418.400000
6653 14841 10054 1 109.50000 418.400000
6653 14841 10277 1 109.50000 418.400000
6653 14841 10278 1 109.50000 418.400000
10054 14841 10277 1 109.50000 418.400000
10054 14841 10278 1 109.50000 418.400000
10277 14841 10278 1 109.50000 418.400000
1102 14842 2535 1 109.50000 418.400000
1102 14842 10279 1 109.50000 418.400000
1102 14842 10280 1 109.50000 418.400000
2535 14842 10279 1 109.50000 418.400000
2535 14842 10280 1 109.50000 418.400000
10279 14842 10280 1 109.50000 418.400000
1049 14843 2909 1 109.50000 418.400000
1049 14843 8727 1 109.50000 418.400000
1049 14843 10281 1 109.50000 418.400000
2909 14843 8727 1 109.50000 418.400000
2909 14843 10281 1 109.50000 418.400000
8727 14843 10281 1 109.50000 418.400000
719 14844 3135 1 109.50000 418.400000
719 14844 7950 1 109.50000 418.400000
719 14844 9287 1 109.50000 418.400000
3135 14844 7950 1 109.50000 418.400000
3135 14844 9287 1 109.50000 418.400000
7950 14844 9287 1 109.50000 418.400000
5259 14845 9570 1 109.50000 418.400000
5259 14845 10282 1 109.50000 418.400000
5259 14845 10283 1 109.50000 418.400000
9570 14845 10282 1 109.50000 418.400000
9570 14845 10283 1 109.50000 418.400000
10282 14845 10283 1 109.50000 418.400000
1390 14846 5963 1 109.50000 418.400000
1390 14846 8359 1 109.50000 418.400000
1390 14846 10284 1 109.50000 418.400000
5963 14846 8359 1 109.50000 418.400000
5963 14846 10284 1 109.50000 418.400000
8359 14846 10284 1 109.50000 418.400000
866 14847 4593 1 109.50000 418.400000
866 14847 4595 1 109.50000 418.400000
866 14847 9636 1 109.50000 418.400000
4593 14847 4595 1 109.50000 418.400000
4593 14847 9636 1 109.50000 418.400000
4595 14847 9636 1 109.50000 418.400000
1949 14848 5038 1 109.50000 418.400000
1949 14848 9289 1 109.50000 418.400000
1949 14848 10286 1 109.50000 418.400000
5038 14848 9289 1 109.50000 418.400000
5038 14848 10286 1 109.50000 418.400000
9289 14848 10286 1 109.50000 418.400000
2030 14849 4334 1 109.50000 418.400000
2030 14849 7507 1 109.50000 418.400000
2030 14849 8763 1 109.50000 418.400000
4334 14849 7507 1 109.50000 418.400000
4334 14849 8763 1 109.50000 418.400000
7507 14849 8763 1 109.50000 418.400000
5420 14850 7443 1 109.50000 418.400000
5420 14850 10040 1 109.50000 418.400000
5420 14850 10287 1 109.50000 418.400000
7443 14850 10040 1 109.50000 418.400000
7443 14850 10287 1 109.50000 418.400000
10040 14850 10287 1 109.50000 418.400000
3768 14851 7604 1 109.50000 418.400000
3768 14851 8591 1 109.50000 418.400000
3768 14851 10288 1 109.50000 418.400000
7604 14851 8591 1 109.50000 418.400000
7604 14851 10288 1 109.50000 418.400000
8591 14851 10288 1 109.50000 418.400000
3209 14852 5863 1 109.50000 418.400000
3209 14852 5864 1 109.50000 418.400000
3209 14852 10289 1 109.50000 418.400000
5863 14852 5864 1 109.50000 418.400000
5863 14852 10289 1 109.50000 418.400000
5864 14852 10289 1 109.50000 418.400000
2209 14853 8349 1 109.50000 418.400000
2209 14853 9035 1 109.50000 418.400000
2209 14853 10291 1 109.50000 418.400000
8349 14853 9035 1 109.50000 418.400000
8349 14853 10291 1 109.50000 418.400000
9035 14853 10291 1 109.50000 418.400000
2143 14854 2532 1 109.50000 418.400000
2143 14854 5785 1 109.50000 418.400000
2143 14854 9220 1 109.50000 418.400000
2532 14854 5785 1 109.50000 418.400000
2532 14854 9220 1 109.50000 418.400000
5785 14854 9220 1 109.50000 418.400000
2154 14855 7960 1 109.50000 418.400000
2154 14855 8776 1 109.50000 418.400000
2154 14855 8872 1 109.50000 418.400000
7960 14855 8776 1 109.50000 418.400000
7960 14855 8872 1 109.50000 418.400000
8776 14855 8872 1 109.50000 418.400000
3700 14856 7585 1 109.50000 418.400000
3700 14856 8649 1 109.50000 418.400000
3700 14856 10292 1 109.50000 418.400000
7585 14856 8649 1 109.50000 418.400000
7585 14856 10292 1 109.50000 418.400000
8649 14856 10292 1 109.50000 418.400000
2341 14857 8037 1 109.50000 418.400000
2341 14857 10293 1 109.50000 418.400000
2341 14857 10294 1 109.50000 418.400000
8037 14857 10293 1 109.50000 418.400000
8037 14857 10294 1 109.50000 418.400000
10293 14857 10294 1 109.50000 418.400000
2347 14858 8615 1 109.50000 418.400000
2347 14858 9514 1 109.50000 418.400000
2347 14858 10295 1 109.50000 418.400000
8615 14858 9514 1 109.50000 418.400000
8615 14858 10295 1 109.50000 418.400000
9514 14858 10295 1 109.50000 418.400000
7365 14859 10048 1 109.50000 418.400000
7365 14859 10296 1 109.50000 418.400000
7365 14859 11177 1 109.50000 418.400000
10048 14859 10296 1 109.50000 418.400000
10048 14859 11177 1 109.50000 418.400000
10296 14859 11177 1 109.50000 418.400000
2199 14860 4753 1 109.50000 418.400000
2199 14860 8741 1 109.50000 418.400000
2199 14860 8863 1 109.50000 418.400000
4753 14860 8741 1 109.50000 418.400000
4753 14860 8863 1 109.50000 418.400000
8741 14860 8863 1 109.50000 418.400000
1354 14861 1356 1 109.50000 418.400000
1354 14861 2415 1 109.50000 418.400000
1354 14861 7725 1 109.50000 418.400000
1356 14861 2415 1 109.50000 418.400000
1356 14861 7725 1 109.50000 418.400000
2415 14861 7725 1 109.50000 418.400000
5914 14862 6218 1 109.50000 418.400000
5914 14862 7267 1 109.50000 418.400000
5914 14862 7633 1 109.50000 418.400000
6218 14862 7267 1 109.50000 418.400000
6218 14862 7633 1 109.50000 418.400000
7267 14862 7633 1 109.50000 418.400000
1132 14863 1226 1 109.50000 418.400000
1132 14863 6586 1 109.50000 418.400000
1132 14863 6587 1 109.50000 418.400000
1226 14863 6586 1 109.50000 418.400000
1226 14863 6587 1 109.50000 418.400000
6586 14863 6587 1 109.50000 418.400000
6094 14864 10137 1 109.50000 418.400000
6094 14864 10297 1 109.50000 418.400000
6094 14864 10298 1 109.50000 418.400000
10137 14864 10297 1 109.50000 418.400000
10137 14864 10298 1 109.50000 418.400000
10297 14864 10298 1 109.50000 418.400000
626 14865 4766 1 109.50000 418.400000
626 14865 7290 1 109.50000 418.400000
626 14865 9579 1 109.50000 418.400000
4766 14865 7290 1 109.50000 418.400000
4766 14865 9579 1 109.50000 418.400000
7290 14865 9579 1 109.50000 418.400000
5119 14866 7969 1 109.50000 418.400000
5119 14866 9336 1 109.50000 418.400000
5119 14866 10299 1 109.50000 418.400000
7969 14866 9336 1 109.50000 418.400000
7969 14866 10299 1 109.50000 418.400000
9336 14866 10299 1 109.50000 418.400000
4487 14867 6405 1 109.50000 418.400000
4487 14867 9910 1 109.50000 418.400000
4487 14867 10031 1 109.50000 418.400000
6405 14867 9910 1 109.50000 418.400000
6405 14867 10031 1 109.50000 418.400000
9910 14867 10031 1 109.50000 418.400000
6015 14868 6582 1 109.50000 418.400000
6015 14868 8088 1 109.50000 418.400000
6015 14868 8547 1 109.50000 418.400000
6582 14868 8088 1 109.50000 418.400000
6582 14868 8547 1 109.50000 418.400000
8088 14868 8547 1 109.50000 418.400000
162 14869 3212 1 109.50000 418.400000
162 14869 6920 1 109.50000 418.400000
162 14869 10176 1 109.50000 418.400000
3212 14869 6920 1 109.50000 418.400000
3212 14869 10176 1 109.50000 418.400000
6920 14869 10176 1 109.50000 418.400000
5913 14870 8604 1 109.50000 418.400000
5913 14870 10300 1 109.50000 418.400000
5913 14870 10301 1 109.50000 418.400000
8604 14870 10300 1 109.50000 418.400000
8604 14870 10301 1 109.50000 418.400000
10300 14870 10301 1 109.50000 418.400000
4659 14871 9086 1 109.50000 418.400000
4659 14871 9554 1 109.50000 418.400000
4659 14871 10303 1 109.50000 418.400000
9086 14871 9554 1 109.50000 418.400000
9086 14871 10303 1 109.50000 418.400000
9554 14871 10303 1 109.50000 418.400000
41 14872 4923 1 109.50000 418.400000
41 14872 8681 1 109.50000 418.400000
41 14872 10304 1 109.50000 418.400000
4923 14872 8681 1 109.50000 418.400000
4923 14872 10304 1 109.50000 418.400000
8681 14872 10304 1 109.50000 418.400000
643 14873 2392 1 109.50000 418.400000
643 14873 8117 1 109.50000 418.400000
643 14873 10305 1 109.50000 418.400000
2392 14873 8117 1 109.50000 418.400000
2392 14873 10305 1 109.50000 418.400000
8117 14873 10305 1 109.50000 418.400000
502 14874 3237 1 109.50000 418.400000
502 14874 8786 1 109.50000 418.400000
502 14874 8853 1 109.50000 418.400000
3237 14874 8786 1 109.50000 418.400000
3237 14874 8853 1 109.50000 418.400000
8786 14874 8853 1 109.50000 418.400000
4456 14875 7007 1 109.50000 418.400000
4456 14875 8049 1 109.50000 418.400000
4456 14875 10308 1 109.50000 418.400000
7007 14875 8049 1 109.50000 418.400000
7007 14875 10308 1 109.50000 418.400000
8049 14875 10308 1 109.50000 418.400000
8513 14876 10133 1 109.50000 418.400000
8513 14876 10309 1 109.50000 418.400000
8513 14876 10310 1 109.50000 418.400000
10133 14876 10309 1 109.50000 418.400000
10133 14876 10310 1 109.50000 418.400000
10309 14876 10310 1 109.50000 418.400000
4426 14877 9201 1 109.50000 418.400000
4426 14877 10311 1 109.50000 418.400000
4426 14877 10312 1 109.50000 418.400000
9201 14877 10311 1 109.50000 418.400000
9201 14877 10312 1 109.50000 418.400000
10311 14877 10312 1 109.50000 418.400000
5622 14878 6792 1 109.50000 418.400000
5622 14878 8409 1 109.50000 418.400000
5622 14878 10313 1 109.50000 418.400000
6792 14878 8409 1 109.50000 418.400000
6792 14878 10313 1 109.50000 418.400000
8409 14878 10313 1 109.50000 418.400000
22 14879 4954 1 109.50000 418.400000
22 14879 10315 1 109.50000 418.400000
22 14879 10316 1 109.50000 418.400000
4954 14879 10315 1 109.50000 418.400000
4954 14879 10316 1 109.50000 418.400000
10315 14879 10316 1 109.50000 418.400000
234 14880 4203 1 109.50000 418.400000
234 14880 9802 1 109.50000 418.400000
234 14880 10317 1 109.50000 418.400000
4203 14880 9802 1 109.50000 418.400000
4203 14880 10317 1 109.50000 418.400000
9802 14880 10317 1 109.50000 418.400000
1430 14881 3138 1 109.50000 418.400000
1430 14881 4186 1 109.50000 418.400000
1430 14881 9830 1 109.50000 418.400000
3138 14881 4186 1 109.50000 418.400000
3138 14881 9830 1 109.50000 418.400000
4186 14881 9830 1 109.50000 418.400000
1515 14882 10318 1 109.50000 418.400000
1515 14882 10319 1 109.50000 418.400000
1515 14882 10320 1 109.50000 418.400000
10318 14882 10319 1 109.50000 418.400000
10318 14882 10320 1 109.50000 418.400000
10319 14882 10320 1 109.50000 418.400000
4536 14883 9757 1 109.50000 418.400000
4536 14883 10321 1 109.50000 418.400000
4536 14883 10322 1 109.50000 418.400000
9757 14883 10321 1 109.50000 418.400000
9757 14883 10322 1 109.50000 418.400000
10321 14883 10322 1 109.50000 418.400000
1947 14884 9476 1 109.50000 418.400000
1947 14884 10281 1 109.50000 418.400000
1947 14884 10323 1 109.50000 418.400000
9476 14884 10281 1 109.50000 418.400000
9476 14884 10323 1 109.50000 418.400000
10281 14884 10323 1 109.50000 418.400000
2275 14885 2311 1 109.50000 418.400000
2275 14885 5254 1 109.50000 418.400000
2275 14885 7564 1 109.50000 418.400000
2311 14885 5254 1 109.50000 418.400000
2311 14885 7564 1 109.50000 418.400000
5254 14885 7564 1 109.50000 418.400000
3609 14886 6371 1 109.50000 418.400000
3609 14886 8400 1 109.50000 418.400000
3609 14886 9457 1 109.50000 418.400000
6371 14886 8400 1 109.50000 418.400000
6371 14886 9457 1 109.50000 418.400000
8400 14886 9457 1 109.50000 418.400000
7119 14887 8654 1 109.50000 418.400000
7119 14887 9841 1 109.50000 418.400000
7119 14887 10324 1 109.50000 418.400000
8654 14887 9841 1 109.50000 418.400000
8654 14887 10324 1 109.50000 418.400000
9841 14887 10324 1 109.50000 418.400000
4305 14888 10253 1 109.50000 418.400000
4305 14888 10325 1 109.50000 418.400000
4305 14888 10326 1 109.50000 418.400000
10253 14888 10325 1 109.50000 418.400000
10253 14888 10326 1 109.50000 418.400000
10325 14888 10326 1 109.50000 418.400000
6579 14889 7677 1 109.50000 418.400000
6579 14889 10283 1 109.50000 418.400000
6579 14889 10327 1 109.50000 418.400000
7677 14889 10283 1 109.50000 418.400000
7677 14889 10327 1 109.50000 418.400000
10283 14889 10327 1 109.50000 418.400000
2077 14890 2474 1 109.50000 418.400000
2077 14890 3000 1 109.50000 418.400000
2077 14890 10328 1 109.50000 418.400000
2474 14890 3000 1 109.50000 418.400000
2474 14890 10328 1 109.50000 418.400000
3000 14890 10328 1 109.50000 418.400000
5651 14891 8719 1 109.50000 418.400000
5651 14891 10331 1 109.50000 418.400000
5651 14891 10332 1 109.50000 418.400000
8719 14891 10331 1 109.50000 418.400000
8719 14891 10332 1 109.50000 418.400000
10331 14891 10332 1 109.50000 418.400000
1432 14892 7354 1 109.50000 418.400000
1432 14892 9105 1 109.50000 418.400000
1432 14892 10135 1 109.50000 418.400000
7354 14892 9105 1 109.50000 418.400000
7354 14892 10135 1 109.50000 418.400000
9105 14892 10135 1 109.50000 418.400000
2992 14893 7883 1 109.50000 418.400000
2992 14893 8552 1 109.50000 418.400000
2992 14893 10333 1 109.50000 418.400000
7883 14893 8552 1 109.50000 418.400000
7883 14893 10333 1 109.50000 418.400000
8552 14893 10333 1 109.50000 418.400000
36 14894 639 1 109.50000 418.400000
36 14894 10334 1 109.50000 418.400000
36 14894 10335 1 109.50000 418.400000
639 14894 10334 1 109.50000 418.400000
639 14894 10335 1 109.50000 418.400000
10334 14894 10335 1 109.50000 418.400000
8351 14895 8629 1 109.50000 418.400000
8351 14895 8880 1 109.50000 418.400000
8351 14895 9821 1 109.50000 418.400000
8629 14895 8880 1 109.50000 418.400000
8629 14895 9821 1 109.50000 418.400000
8880 14895 9821 1 109.50000 418.400000
1303 14896 2528 1 109.50000 418.400000
1303 14896 5947 1 109.50000 418.400000
1303 14896 10336 1 109.50000 418.400000
2528 14896 5947 1 109.50000 418.400000
2528 14896 10336 1 109.50000 418.400000
5947 14896 10336 1 109.50000 418.400000
1041 14897 5946 1 109.50000 418.400000
1041 14897 10337 1 109.50000 418.400000
1041 14897 10338 1 109.50000 418.400000
5946 14897 10337 1 109.50000 418.400000
5946 14897 10338 1 109.50000 418.400000
10337 14897 10338 1 109.50000 418.400000
5405 14898 7475 1 109.50000 418.400000
5405 14898 9262 1 109.50000 418.400000
5405 14898 9943 1 109.50000 418.400000
7475 14898 9262 1 109.50000 418.400000
7475 14898 9943 1 109.50000 418.400000
9262 14898 9943 1 109.50000 418.400000
4698 14899 8448 1 109.50000 418.400000
4698 14899 9145 1 109.50000 418.400000
4698 14899 10340 1 109.50000 418.400000
8448 14899 9145 1 109.50000 418.400000
8448 14899 10340 1 109.50000 418.400000
9145 14899 10340 1 109.50000 418.400000
4706 14900 5773 1 109.50000 418.400000
4706 14900 6814 1 109.50000 418.400000
4706 14900 10341 1 109.50000 418.400000
5773 14900 6814 1 109.50000 418.400000
5773 14900 10341 1 109.50000 418.400000
6814 14900 10341 1 109.50000 418.400000
8458 14901 10162 1 109.50000 418.400000
8458 14901 10342 1 109.50000 418.400000
8458 14901 10343 1 109.50000 418.400000
10162 14901 10342 1 109.50000 418.400000
10162 14901 10343 1 109.50000 418.400000
10342 14901 10343 1 109.50000 418.400000
4975 14902 7039 1 109.50000 418.400000
4975 14902 10344 1 109.50000 418.400000
4975 14902 10345 1 109.50000 418.400000
7039 14902 10344 1 109.50000 418.400000
7039 14902 10345 1 109.50000 418.400000
10344 14902 10345 1 109.50000 418.400000
5831 14903 7623 1 109.50000 418.400000
5831 14903 9934 1 109.50000 418.400000
5831 14903 10346 1 109.50000 418.400000
7623 14903 9934 1 109.50000 418.400000
7623 14903 10346 1 109.50000 418.400000
9934 14903 10346 1 109.50000 418.400000
3057 14904 8005 1 109.50000 418.400000
3057 14904 10265 1 109.50000 418.400000
3057 14904 10347 1 109.50000 418.400000
8005 14904 10265 1 109.50000 418.400000
8005 14904 10347 1 109.50000 418.400000
10265 14904 10347 1 109.50000 418.400000
6359 14905 8433 1 109.50000 418.400000
6359 14905 8468 1 109.50000 418.400000
6359 14905 10348 1 109.50000 418.400000
8433 14905 8468 1 109.50000 418.400000
8433 14905 10348 1 109.50000 418.400000
8468 14905 10348 1 109.50000 418.400000
7952 14906 8924 1 109.50000 418.400000
7952 14906 9940 1 109.50000 418.400000
7952 14906 10349 1 109.50000 418.400000
8924 14906 9940 1 109.50000 418.400000
8924 14906 10349 1 109.50000 418.400000
9940 14906 10349 1 109.50000 418.400000
1333 14907 5137 1 109.50000 418.400000
1333 14907 9972 1 109.50000 418.400000
1333 14907 10350 1 109.50000 418.400000
5137 14907 9972 1 109.50000 418.400000
5137 14907 10350 1 109.50000 418.400000
9972 14907 10350 1 109.50000 418.400000
144 14908 2630 1 109.50000 418.400000
144 14908 7466 1 109.50000 418.400000
144 14908 9338 1 109.50000 418.400000
2630 14908 7466 1 109.50000 418.400000
2630 14908 9338 1 109.50000 418.400000
7466 14908 9338 1 109.50000 418.400000
9968 14909 10351 1 109.50000 418.400000
9968 14909 10352 1 109.50000 418.400000
9968 14909 10353 1 109.50000 418.400000
10351 14909 10352 1 109.50000 418.400000
10351 14909 10353 1 109.50000 418.400000
10352 14909 10353 1 109.50000 418.400000
1181 14910 7115 1 109.50000 418.400000
1181 14910 9041 1 109.50000 418.400000
1181 14910 10354 1 109.50000 418.400000
7115 14910 9041 1 109.50000 418.400000
7115 14910 10354 1 109.50000 418.400000
9041 14910 10354 1 109.50000 418.400000
138 14911 5334 1 109.50000 418.400000
138 14911 9509 1 109.50000 418.400000
138 14911 10355 1 109.50000 418.400000
5334 14911 9509 1 109.50000 418.400000
5334 14911 10355 1 109.50000 418.400000
9509 14911 10355 1 109.50000 418.400000
5861 14912 6634 1 109.50000 418.400000
5861 14912 7582 1 109.50000 418.400000
5861 14912 8474 1 109.50000 418.400000
6634 14912 7582 1 109.50000 418.400000
6634 14912 8474 1 109.50000 418.400000
7582 14912 8474 1 109.50000 418.400000
1559 14913 2578 1 109.50000 418.400000
1559 14913 7780 1 109.50000 418.400000
1559 14913 7970 1 109.50000 418.400000
2578 14913 7780 1 109.50000 418.400000
2578 14913 7970 1 109.50000 418.400000
7780 14913 7970 1 109.50000 418.400000
3352 14914 9520 1 109.50000 418.400000
3352 14914 10358 1 109.50000 418.400000
3352 14914 10359 1 109.50000 418.400000
9520 14914 10358 1 109.50000 418.400000
9520 14914 10359 1 109.50000 418.400000
10358 14914 10359 1 109.50000 418.400000
4602 14915 6244 1 109.50000 418.400000
4602 14915 7313 1 109.50000 418.400000
4602 14915 8079 1 109.50000 418.400000
6244 14915 7313 1 109.50000 418.400000
6244 14915 8079 1 109.50000 418.400000
7313 14915 8079 1 109.50000 418.400000
7609 14916 10360 1 109.50000 418.400000
7609 14916 10361 1 109.50000 418.400000
7609 14916 10362 1 109.50000 418.400000
10360 14916 10361 1 109.50000 418.400000
10360 14916 10362 1 109.50000 418.400000
10361 14916 10362 1 109.50000 418.400000
8679 14917 10363 1 109.50000 418.400000
8679 14917 10364 1 109.50000 418.400000
8679 14917 10365 1 109.50000 418.400000
10363 14917 10364 1 109.50000 418.400000
10363 14917 10365 1 109.50000 418.400000
10364 14917 10365 1 109.50000 418.400000
3908 14918 6377 1 109.50000 418.400000
3908 14918 10366 1 109.50000 418.400000
3908 14918 10367 1 109.50000 418.400000
6377 14918 10366 1 109.50000 418.400000
6377 14918 10367 1 109.50000 418.400000
10366 14918 10367 1 109.50000 418.400000
7603 14919 7605 1 109.50000 418.400000
7603 14919 10368 1 109.50000 418.400000
7603 14919 10369 1 109.50000 418.400000
7605 14919 10368 1 109.50000 418.400000
7605 14919 10369 1 109.50000 418.400000
10368 14919 10369 1 109.50000 418.400000
7893 14920 10097 1 109.50000 418.400000
7893 14920 10370 1 109.50000 418.400000
7893 14920 10371 1 109.50000 418.400000
10097 14920 10370 1 109.50000 418.400000
10097 14920 10371 1 109.50000 418.400000
10370 14920 10371 1 109.50000 418.400000
10372 14921 10373 1 109.50000 418.400000
10372 14921 10374 1 109.50000 418.400000
10372 14921 10375 1 109.50000 418.400000
10373 14921 10374 1 109.50000 418.400000
10373 14921 10375 1 109.50000 418.400000
10374 14921 10375 1 109.50000 418.400000
1124 14922 7766 1 109.50000 418.400000
1124 14922 8087 1 109.50000 418.400000
1124 14922 8995 1 109.50000 418.400000
7766 14922 8087 1 109.50000 418.400000
7766 14922 8995 1 109.50000 418.400000
8087 14922 8995 1 109.50000 418.400000
136 14923 7438 1 109.50000 418.400000
136 14923 8261 1 109.50000 418.400000
136 14923 8567 1 109.50000 418.400000
7438 14923 8261 1 109.50000 418.400000
7438 14923 8567 1 109.50000 418.400000
8261 14923 8567 1 109.50000 418.400000
2044 14924 8224 1 109.50000 418.400000
2044 14924 9240 1 109.50000 418.400000
2044 14924 10376 1 109.50000 418.400000
8224 14924 9240 1 109.50000 418.400000
8224 14924 10376 1 109.50000 418.400000
9240 14924 10376 1 109.50000 418.400000
7314 14925 8388 1 109.50000 418.400000
7314 14925 8519 1 109.50000 418.400000
7314 14925 10377 1 109.50000 418.400000
8388 14925 8519 1 109.50000 418.400000
8388 14925 10377 1 109.50000 418.400000
8519 14925 10377 1 109.50000 418.400000
10378 14926 10379 1 109.50000 418.400000
10378 14926 10380 1 109.50000 418.400000
10378 14926 10661 1 109.50000 418.400000
10379 14926 10380 1 109.50000 418.400000
10379 14926 10661 1 109.50000 418.400000
10380 14926 10661 1 109.50000 418.400000
5703 14927 10164 1 109.50000 418.400000
5703 14927 10381 1 109.50000 418.400000
5703 14927 10382 1 109.50000 418.400000
10164 14927 10381 1 109.50000 418.400000
10164 14927 10382 1 109.50000 418.400000
10381 14927 10382 1 109.50000 418.400000
3584 14928 4869 1 109.50000 418.400000
3584 14928 9427 1 109.50000 418.400000
3584 14928 10383 1 109.50000 418.400000
4869 14928 9427 1 109.50000 418.400000
4869 14928 10383 1 109.50000 418.400000
9427 14928 10383 1 109.50000 418.400000
2223 14929 8464 1 109.50000 418.400000
2223 14929 10201 1 109.50000 418.400000
2223 14929 10384 1 109.50000 418.400000
8464 14929 10201 1 109.50000 418.400000
8464 14929 10384 1 109.50000 418.400000
10201 14929 10384 1 109.50000 418.400000
7248 14930 7635 1 109.50000 418.400000
7248 14930 10385 1 109.50000 418.400000
7248 14930 10386 1 109.50000 418.400000
7635 14930 10385 1 109.50000 418.400000
7635 14930 10386 1 109.50000 418.400000
10385 14930 10386 1 109.50000 418.400000
1080 14931 9016 1 109.50000 418.400000
1080 14931 10387 1 109.50000 418.400000
1080 14931 10388 1 109.50000 418.400000
9016 14931 10387 1 109.50000 418.400000
9016 14931 10388 1 109.50000 418.400000
10387 14931 10388 1 109.50000 418.400000
4369 14932 7793 1 109.50000 418.400000
4369 14932 9682 1 109.50000 418.400000
4369 14932 10293 1 109.50000 418.400000
7793 14932 9682 1 109.50000 418.400000
7793 14932 10293 1 109.50000 418.400000
9682 14932 10293 1 109.50000 418.400000
2399 14933 2626 1 109.50000 418.400000
2399 14933 8317 1 109.50000 418.400000
2399 14933 8986 1 109.50000 418.400000
2626 14933 8317 1 109.50000 418.400000
2626 14933 8986 1 109.50000 418.400000
8317 14933 8986 1 109.50000 418.400000
2316 14934 6082 1 109.50000 418.400000
2316 14934 8714 1 109.50000 418.400000
2316 14934 9767 1 109.50000 418.400000
6082 14934 8714 1 109.50000 418.400000
6082 14934 9767 1 109.50000 418.400000
8714 14934 9767 1 109.50000 418.400000
70 14935 3594 1 109.50000 418.400000
70 14935 5412 1 109.50000 418.400000
70 14935 7484 1 109.50000 418.400000
3594 14935 5412 1 109.50000 418.400000
3594 14935 7484 1 109.50000 418.400000
5412 14935 7484 1 109.50000 418.400000
821 14936 4341 1 109.50000 418.400000
821 14936 4424 1 109.50000 418.400000
821 14936 9316 1 109.50000 418.400000
4341 14936 4424 1 109.50000 418.400000
4341 14936 9316 1 109.50000 418.400000
4424 14936 9316 1 109.50000 418.400000
7791 14937 8435 1 109.50000 418.400000
7791 14937 10389 1 109.50000 418.400000
7791 14937 10390 1 109.50000 418.400000
8435 14937 10389 1 109.50000 418.400000
8435 14937 10390 1 109.50000 418.400000
10389 14937 10390 1 109.50000 418.400000
3409 14938 4575 1 109.50000 418.400000
3409 14938 4601 1 109.50000 418.400000
3409 14938 7710 1 109.50000 418.400000
4575 14938 4601 1 109.50000 418.400000
4575 14938 7710 1 109.50000 418.400000
4601 14938 7710 1 109.50000 418.400000
7478 14939 9175 1 109.50000 418.400000
7478 14939 9722 1 109.50000 418.400000
7478 14939 10181 1 109.50000 418.400000
9175 14939 9722 1 109.50000 418.400000
9175 14939 10181 1 109.50000 418.400000
9722 14939 10181 1 109.50000 418.400000
4274 14940 5874 1 109.50000 418.400000
4274 14940 9073 1 109.50000 418.400000
4274 14940 10090 1 109.50000 418.400000
5874 14940 9073 1 109.50000 418.400000
5874 14940 10090 1 109.50000 418.400000
9073 14940 10090 1 109.50000 418.400000
3631 14941 6965 1 109.50000 418.400000
3631 14941 6967 1 109.50000 418.400000
3631 14941 10391 1 109.50000 418.400000
6965 14941 6967 1 109.50000 418.400000
6965 14941 10391 1 109.50000 418.400000
6967 14941 10391 1 109.50000 418.400000
9292 14942 10392 1 109.50000 418.400000
9292 14942 10393 1 109.50000 418.400000
9292 14942 10394 1 109.50000 418.400000
10392 14942 10393 1 109.50000 418.400000
10392 14942 10394 1 109.50000 418.400000
10393 14942 10394 1 109.50000 418.400000
2849 14943 4523 1 109.50000 418.400000
2849 14943 9572 1 109.50000 418.400000
2849 14943 10254 1 109.50000 418.400000
4523 14943 9572 1 109.50000 418.400000
4523 14943 10254 1 109.50000 418.400000
9572 14943 10254 1 109.50000 418.400000
504 14944 4868 1 109.50000 418.400000
504 14944 10203 1 109.50000 418.400000
504 14944 10395 1 109.50000 418.400000
4868 14944 10203 1 109.50000 418.400000
4868 14944 10395 1 109.50000 418.400000
10203 14944 10395 1 109.50000 418.400000
5148 14945 9489 1 109.50000 418.400000
5148 14945 9896 1 109.50000 418.400000
5148 14945 10335 1 109.50000 418.400000
9489 14945 9896 1 109.50000 418.400000
9489 14945 10335 1 109.50000 418.400000
9896 14945 10335 1 109.50000 418.400000
3925 14946 7656 1 109.50000 418.400000
3925 14946 9640 1 109.50000 418.400000
3925 14946 9975 1 109.50000 418.400000
7656 14946 9640 1 109.50000 418.400000
7656 14946 9975 1 109.50000 418.400000
9640 14946 9975 1 109.50000 418.400000
2439 14947 8155 1 109.50000 418.400000
2439 14947 10027 1 109.50000 418.400000
2439 14947 10396 1 109.50000 418.400000
8155 14947 10027 1 109.50000 418.400000
8155 14947 10396 1 109.50000 418.400000
10027 14947 10396 1 109.50000 418.400000
1412 14948 2958 1 109.50000 418.400000
1412 14948 3650 1 109.50000 418.400000
1412 14948 10398 1 109.50000 418.400000
2958 14948 3650 1 109.50000 418.400000
2958 14948 10398 1 109.50000 418.400000
3650 14948 10398 1 109.50000 418.400000
1460 14949 6112 1 109.50000 418.400000
1460 14949 9170 1 109.50000 418.400000
1460 14949 10263 1 109.50000 418.400000
6112 14949 9170 1 109.50000 418.400000
6112 14949 10263 1 109.50000 418.400000
9170 14949 10263 1 109.50000 418.400000
8722 14950 9188 1 109.50000 418.400000
8722 14950 9225 1 109.50000 418.400000
8722 14950 10399 1 109.50000 418.400000
9188 14950 9225 1 109.50000 418.400000
9188 14950 10399 1 109.50000 418.400000
9225 14950 10399 1 109.50000 418.400000
1394 14951 2116 1 109.50000 418.400000
1394 14951 7107 1 109.50000 418.400000
1394 14951 10400 1 109.50000 418.400000
2116 14951 7107 1 109.50000 418.400000
2116 14951 10400 1 109.50000 418.400000
7107 14951 10400 1 109.50000 418.400000
1354 14952 2861 1 109.50000 418.400000
1354 14952 7269 1 109.50000 418.400000
1354 14952 7270 1 109.50000 418.400000
2861 14952 7269 1 109.50000 418.400000
2861 14952 7270 1 109.50000 418.400000
7269 14952 7270 1 109.50000 418.400000
5632 14953 7303 1 109.50000 418.400000
5632 14953 10214 1 109.50000 418.400000
5632 14953 10402 1 109.50000 418.400000
7303 14953 10214 1 109.50000 418.400000
7303 14953 10402 1 109.50000 418.400000
10214 14953 10402 1 109.50000 418.400000
4039 14954 9049 1 109.50000 418.400000
4039 14954 10403 1 109.50000 418.400000
4039 14954 10404 1 109.50000 418.400000
9049 14954 10403 1 109.50000 418.400000
9049 14954 10404 1 109.50000 418.400000
10403 14954 10404 1 109.50000 418.400000
1859 14955 4161 1 109.50000 418.400000
1859 14955 10405 1 109.50000 418.400000
1859 14955 10406 1 109.50000 418.400000
4161 14955 10405 1 109.50000 418.400000
4161 14955 10406 1 109.50000 418.400000
10405 14955 10406 1 109.50000 418.400000
1640 14956 8497 1 109.50000 418.400000
1640 14956 8499 1 109.50000 418.400000
1640 14956 8500 1 109.50000 418.400000
8497 14956 8499 1 109.50000 418.400000
8497 14956 8500 1 109.50000 418.400000
8499 14956 8500 1 109.50000 418.400000
4086 14957 5118 1 109.50000 418.400000
4086 14957 10015 1 109.50000 418.400000
4086 14957 10408 1 109.50000 418.400000
5118 14957 10015 1 109.50000 418.400000
5118 14957 10408 1 109.50000 418.400000
10015 14957 10408 1 109.50000 418.400000
2135 14958 4552 1 109.50000 418.400000
2135 14958 8844 1 109.50000 418.400000
2135 14958 10409 1 109.50000 418.400000
4552 14958 8844 1 109.50000 418.400000
4552 14958 10409 1 109.50000 418.400000
8844 14958 10409 1 109.50000 418.400000
2761 14959 6029 1 109.50000 418.400000
2761 14959 10250 1 109.50000 418.400000
2761 14959 10410 1 109.50000 418.400000
6029 14959 10250 1 109.50000 418.400000
6029 14959 10410 1 109.50000 418.400000
10250 14959 10410 1 109.50000 418.400000
4077 14960 6463 1 109.50000 418.400000
4077 14960 8808 1 109.50000 418.400000
4077 14960 10411 1 109.50000 418.400000
6463 14960 8808 1 109.50000 418.400000
6463 14960 10411 1 109.50000 418.400000
8808 14960 10411 1 109.50000 418.400000
201 14961 7062 1 109.50000 418.400000
201 14961 8825 1 109.50000 418.400000
201 14961 10412 1 109.50000 418.400000
7062 14961 8825 1 109.50000 418.400000
7062 14961 10412 1 109.50000 418.400000
8825 14961 10412 1 109.50000 418.400000
4631 14962 10153 1 109.50000 418.400000
4631 14962 10410 1 109.50000 418.400000
4631 14962 10415 1 109.50000 418.400000
10153 14962 10410 1 109.50000 418.400000
10153 14962 10415 1 109.50000 418.400000
10410 14962 10415 1 109.50000 418.400000
1248 14963 5915 1 109.50000 418.400000
1248 14963 7822 1 109.50000 418.400000
1248 14963 10232 1 109.50000 418.400000
5915 14963 7822 1 109.50000 418.400000
5915 14963 10232 1 109.50000 418.400000
7822 14963 10232 1 109.50000 418.400000
443 14964 2048 1 109.50000 418.400000
443 14964 10416 1 109.50000 418.400000
443 14964 10417 1 109.50000 418.400000
2048 14964 10416 1 109.50000 418.400000
2048 14964 10417 1 109.50000 418.400000
10416 14964 10417 1 109.50000 418.400000
803 14965 5870 1 109.50000 418.400000
803 14965 10271 1 109.50000 418.400000
803 14965 10418 1 109.50000 418.400000
5870 14965 10271 1 109.50000 418.400000
5870 14965 10418 1 109.50000 418.400000
10271 14965 10418 1 109.50000 418.400000
2472 14966 2867 1 109.50000 418.400000
2472 14966 4782 1 109.50000 418.400000
2472 14966 8659 1 109.50000 418.400000
2867 14966 4782 1 109.50000 418.400000
2867 14966 8659 1 109.50000 418.400000
4782 14966 8659 1 109.50000 418.400000
3620 14967 10408 1 109.50000 418.400000
3620 14967 10419 1 109.50000 418.400000
3620 14967 10420 1 109.50000 418.400000
10408 14967 10419 1 109.50000 418.400000
10408 14967 10420 1 109.50000 418.400000
10419 14967 10420 1 109.50000 418.400000
5272 14968 7043 1 109.50000 418.400000
5272 14968 9132 1 109.50000 418.400000
5272 14968 10421 1 109.50000 418.400000
7043 14968 9132 1 109.50000 418.400000
7043 14968 10421 1 109.50000 418.400000
9132 14968 10421 1 109.50000 418.400000
617 14969 5697 1 109.50000 418.400000
617 14969 8682 1 109.50000 418.400000
617 14969 9777 1 109.50000 418.400000
5697 14969 8682 1 109.50000 418.400000
5697 14969 9777 1 109.50000 418.400000
8682 14969 9777 1 109.50000 418.400000
4097 14970 5016 1 109.50000 418.400000
4097 14970 7667 1 109.50000 418.400000
4097 14970 10358 1 109.50000 418.400000
5016 14970 7667 1 109.50000 418.400000
5016 14970 10358 1 109.50000 418.400000
7667 14970 10358 1 109.50000 418.400000
1036 14971 1037 1 109.50000 418.400000
1036 14971 1038 1 109.50000 418.400000
1036 14971 1039 1 109.50000 418.400000
1037 14971 1038 1 109.50000 418.400000
1037 14971 1039 1 109.50000 418.400000
1038 14971 1039 1 109.50000 418.400000
5378 14972 8507 1 109.50000 418.400000
5378 14972 10311 1 109.50000 418.400000
5378 14972 10423 1 109.50000 418.400000
8507 14972 10311 1 109.50000 418.400000
8507 14972 10423 1 109.50000 418.400000
10311 14972 10423 1 109.50000 418.400000
3046 14973 5696 1 109.50000 418.400000
3046 14973 9380 1 109.50000 418.400000
3046 14973 10167 1 109.50000 418.400000
5696 14973 9380 1 109.50000 418.400000
5696 14973 10167 1 109.50000 418.400000
9380 14973 10167 1 109.50000 418.400000
885 14974 7581 1 109.50000 418.400000
885 14974 10424 1 109.50000 418.400000
885 14974 10822 1 109.50000 418.400000
7581 14974 10424 1 109.50000 418.400000
7581 14974 10822 1 109.50000 418.400000
10424 14974 10822 1 109.50000 418.400000
5189 14975 7036 1 109.50000 418.400000
5189 14975 9053 1 109.50000 418.400000
5189 14975 10425 1 109.50000 418.400000
7036 14975 9053 1 109.50000 418.400000
7036 14975 10425 1 109.50000 418.400000
9053 14975 10425 1 109.50000 418.400000
6554 14976 7156 1 109.50000 418.400000
6554 14976 9433 1 109.50000 418.400000
6554 14976 10426 1 109.50000 418.400000
7156 14976 9433 1 109.50000 418.400000
7156 14976 10426 1 109.50000 418.400000
9433 14976 10426 1 109.50000 418.400000
3404 14977 8950 1 109.50000 418.400000
3404 14977 10125 1 109.50000 418.400000
3404 14977 10278 1 109.50000 418.400000
8950 14977 10125 1 109.50000 418.400000
8950 14977 10278 1 109.50000 418.400000
10125 14977 10278 1 109.50000 418.400000
5474 14978 9180 1 109.50000 418.400000
5474 14978 10291 1 109.50000 418.400000
5474 14978 10427 1 109.50000 418.400000
9180 14978 10291 1 109.50000 418.400000
9180 14978 10427 1 109.50000 418.400000
10291 14978 10427 1 109.50000 418.400000
5180 14979 9022 1 109.50000 418.400000
5180 14979 10428 1 109.50000 418.400000
5180 14979 10429 1 109.50000 418.400000
9022 14979 10428 1 109.50000 418.400000
9022 14979 10429 1 109.50000 418.400000
10428 14979 10429 1 109.50000 418.400000
9417 14980 10345 1 109.50000 418.400000
9417 14980 10430 1 109.50000 418.400000
9417 14980 10431 1 109.50000 418.400000
10345 14980 10430 1 109.50000 418.400000
10345 14980 10431 1 109.50000 418.400000
10430 14980 10431 1 109.50000 418.400000
4628 14981 7681 1 109.50000 418.400000
4628 14981 8570 1 109.50000 418.400000
4628 14981 10432 1 109.50000 418.400000
7681 14981 8570 1 109.50000 418.400000
7681 14981 10432 1 109.50000 418.400000
8570 14981 10432 1 109.50000 418.400000
5993 14982 6983 1 109.50000 418.400000
5993 14982 9720 1 109.50000 418.400000
5993 14982 9906 1 109.50000 418.400000
6983 14982 9720 1 109.50000 418.400000
6983 14982 9906 1 109.50000 418.400000
9720 14982 9906 1 109.50000 418.400000
1480 14983 2583 1 109.50000 418.400000
1480 14983 2585 1 109.50000 418.400000
1480 14983 8778 1 109.50000 418.400000
2583 14983 2585 1 109.50000 418.400000
2583 14983 8778 1 109.50000 418.400000
2585 14983 8778 1 109.50000 418.400000
6610 14984 8462 1 109.50000 418.400000
6610 14984 8587 1 109.50000 418.400000
6610 14984 9455 1 109.50000 418.400000
8462 14984 8587 1 109.50000 418.400000
8462 14984 9455 1 109.50000 418.400000
8587 14984 9455 1 109.50000 418.400000
45 14985 2200 1 109.50000 418.400000
45 14985 9713 1 109.50000 418.400000
45 14985 10433 1 109.50000 418.400000
2200 14985 9713 1 109.50000 418.400000
2200 14985 10433 1 109.50000 418.400000
9713 14985 10433 1 109.50000 418.400000
4815 14986 5747 1 109.50000 418.400000
4815 14986 6027 1 109.50000 418.400000
4815 14986 8172 1 109.50000 418.400000
5747 14986 6027 1 109.50000 418.400000
5747 14986 8172 1 109.50000 418.400000
6027 14986 8172 1 109.50000 418.400000
1668 14987 7704 1 109.50000 418.400000
1668 14987 7820 1 109.50000 418.400000
1668 14987 10434 1 109.50000 418.400000
7704 14987 7820 1 109.50000 418.400000
7704 14987 10434 1 109.50000 418.400000
7820 14987 10434 1 109.50000 418.400000
1045 14988 4252 1 109.50000 418.400000
1045 14988 8754 1 109.50000 418.400000
1045 14988 10421 1 109.50000 418.400000
4252 14988 8754 1 109.50000 418.400000
4252 14988 10421 1 109.50000 418.400000
8754 14988 10421 1 109.50000 418.400000
2459 14989 5327 1 109.50000 418.400000
2459 14989 7046 1 109.50000 418.400000
2459 14989 9209 1 109.50000 418.400000
5327 14989 7046 1 109.50000 418.400000
5327 14989 9209 1 109.50000 418.400000
7046 14989 9209 1 109.50000 418.400000
3945 14990 5003 1 109.50000 418.400000
3945 14990 6765 1 109.50000 418.400000
3945 14990 6767 1 109.50000 418.400000
5003 14990 6765 1 109.50000 418.400000
5003 14990 6767 1 109.50000 418.400000
6765 14990 6767 1 109.50000 418.400000
10437 14991 10438 1 109.50000 418.400000
10437 14991 10439 1 109.50000 418.400000
10437 14991 10440 1 109.50000 418.400000
10438 14991 10439 1 109.50000 418.400000
10438 14991 10440 1 109.50000 418.400000
10439 14991 10440 1 109.50000 418.400000
4447 14992 7550 1 109.50000 418.400000
4447 14992 9222 1 109.50000 418.400000
4447 14992 10443 1 109.50000 418.400000
7550 14992 9222 1 109.50000 418.400000
7550 14992 10443 1 109.50000 418.400000
9222 14992 10443 1 109.50000 418.400000
7385 14993 7751 1 109.50000 418.400000
7385 14993 10444 1 109.50000 418.400000
7385 14993 10445 1 109.50000 418.400000
7751 14993 10444 1 109.50000 418.400000
7751 14993 10445 1 109.50000 418.400000
10444 14993 10445 1 109.50000 418.400000
873 14994 5011 1 109.50000 418.400000
873 14994 9404 1 109.50000 418.400000
873 14994 10446 1 109.50000 418.400000
5011 14994 9404 1 109.50000 418.400000
5011 14994 10446 1 109.50000 418.400000
9404 14994 10446 1 109.50000 418.400000
4388 14995 8085 1 109.50000 418.400000
4388 14995 8920 1 109.50000 418.400000
4388 14995 10447 1 109.50000 418.400000
8085 14995 8920 1 109.50000 418.400000
8085 14995 10447 1 109.50000 418.400000
8920 14995 10447 1 109.50000 418.400000
774 14996 3430 1 109.50000 418.400000
774 14996 5184 1 109.50000 418.400000
774 14996 10448 1 109.50000 418.400000
3430 14996 5184 1 109.50000 418.400000
3430 14996 10448 1 109.50000 418.400000
5184 14996 10448 1 109.50000 418.400000
751 14997 9597 1 109.50000 418.400000
751 14997 10449 1 109.50000 418.400000
751 14997 10450 1 109.50000 418.400000
9597 14997 10449 1 109.50000 418.400000
9597 14997 10450 1 109.50000 418.400000
10449 14997 10450 1 109.50000 418.400000
7540 14998 10451 1 109.50000 418.400000
7540 14998 10452 1 109.50000 418.400000
7540 14998 10453 1 109.50000 418.400000
10451 14998 10452 1 109.50000 418.400000
10451 14998 10453 1 109.50000 418.400000
10452 14998 10453 1 109.50000 418.400000
979 14999 2367 1 109.50000 418.400000
979 14999 6342 1 109.50000 418.400000
979 14999 7756 1 109.50000 418.400000
2367 14999 6342 1 109.50000 418.400000
2367 14999 7756 1 109.50000 418.400000
6342 14999 7756 1 109.50000 418.400000
2414 15000 9204 1 109.50000 418.400000
2414 15000 10454 1 109.50000 418.400000
2414 15000 10455 1 109.50000 418.400000
9204 15000 10454 1 109.50000 418.400000
9204 15000 10455 1 109.50000 418.400000
10454 15000 10455 1 109.50000 418.400000
1054 15001 7930 1 109.50000 418.400000
1054 15001 9167 1 109.50000 418.400000
1054 15001 9440 1 109.50000 418.400000
7930 15001 9167 1 109.50000 418.400000
7930 15001 9440 1 109.50000 418.400000
9167 15001 9440 1 109.50000 418.400000
3124 15002 7380 1 109.50000 418.400000
3124 15002 8575 1 109.50000 418.400000
3124 15002 10456 1 109.50000 418.400000
7380 15002 8575 1 109.50000 418.400000
7380 15002 10456 1 109.50000 418.400000
8575 15002 10456 1 109.50000 418.400000
5143 15003 5354 1 109.50000 418.400000
5143 15003 7488 1 109.50000 418.400000
5143 15003 10457 1 109.50000 418.400000
5354 15003 7488 1 109.50000 418.400000
5354 15003 10457 1 109.50000 418.400000
7488 15003 10457 1 109.50000 418.400000
5639 15004 9068 1 109.50000 418.400000
5639 15004 9069 1 109.50000 418.400000
5639 15004 10458 1 109.50000 418.400000
9068 15004 9069 1 109.50000 418.400000
9068 15004 10458 1 109.50000 418.400000
9069 15004 10458 1 109.50000 418.400000
5967 15005 8791 1 109.50000 418.400000
5967 15005 9659 1 109.50000 418.400000
5967 15005 10460 1 109.50000 418.400000
8791 15005 9659 1 109.50000 418.400000
8791 15005 10460 1 109.50000 418.400000
9659 15005 10460 1 109.50000 418.400000
1435 15006 4370 1 109.50000 418.400000
1435 15006 6985 1 109.50000 418.400000
1435 15006 7675 1 109.50000 418.400000
4370 15006 6985 1 109.50000 418.400000
4370 15006 7675 1 109.50000 418.400000
6985 15006 7675 1 109.50000 418.400000
1009 15007 5458 1 109.50000 418.400000
1009 15007 7455 1 109.50000 418.400000
1009 15007 10464 1 109.50000 418.400000
5458 15007 7455 1 109.50000 418.400000
5458 15007 10464 1 109.50000 418.400000
7455 15007 10464 1 109.50000 418.400000
407 15008 408 1 109.50000 418.400000
407 15008 1352 1 109.50000 418.400000
407 15008 8278 1 109.50000 418.400000
408 15008 1352 1 109.50000 418.400000
408 15008 8278 1 109.50000 418.400000
1352 15008 8278 1 109.50000 418.400000
4070 15009 8182 1 109.50000 418.400000
4070 15009 8643 1 109.50000 418.400000
4070 15009 10465 1 109.50000 418.400000
8182 15009 8643 1 109.50000 418.400000
8182 15009 10465 1 109.50000 418.400000
8643 15009 10465 1 109.50000 418.400000
5522 15010 10466 1 109.50000 418.400000
5522 15010 10467 1 109.50000 418.400000
5522 15010 10741 1 109.50000 418.400000
10466 15010 10467 1 109.50000 418.400000
10466 15010 10741 1 109.50000 418.400000
10467 15010 10741 1 109.50000 418.400000
7942 15011 8582 1 109.50000 418.400000
7942 15011 10438 1 109.50000 418.400000
7942 15011 10468 1 109.50000 418.400000
8582 15011 10438 1 109.50000 418.400000
8582 15011 10468 1 109.50000 418.400000
10438 15011 10468 1 109.50000 418.400000
9346 15012 9532 1 109.50000 418.400000
9346 15012 9533 1 109.50000 418.400000
9346 15012 10469 1 109.50000 418.400000
9532 15012 9533 1 109.50000 418.400000
9532 15012 10469 1 109.50000 418.400000
9533 15012 10469 1 109.50000 418.400000
321 15013 3730 1 109.50000 418.400000
321 15013 4275 1 109.50000 418.400000
321 15013 10383 1 109.50000 418.400000
3730 15013 4275 1 109.50000 418.400000
3730 15013 10383 1 109.50000 418.400000
4275 15013 10383 1 109.50000 418.400000
2280 15014 6573 1 109.50000 418.400000
2280 15014 8418 1 109.50000 418.400000
2280 15014 10470 1 109.50000 418.400000
6573 15014 8418 1 109.50000 418.400000
6573 15014 10470 1 109.50000 418.400000
8418 15014 10470 1 109.50000 418.400000
1234 15015 5807 1 109.50000 418.400000
1234 15015 10471 1 109.50000 418.400000
1234 15015 10472 1 109.50000 418.400000
5807 15015 10471 1 109.50000 418.400000
5807 15015 10472 1 109.50000 418.400000
10471 15015 10472 1 109.50000 418.400000
281 15016 7161 1 109.50000 418.400000
281 15016 10473 1 109.50000 418.400000
281 15016 10474 1 109.50000 418.400000
7161 15016 10473 1 109.50000 418.400000
7161 15016 10474 1 109.50000 418.400000
10473 15016 10474 1 109.50000 418.400000
1010 15017 2218 1 109.50000 418.400000
1010 15017 6465 1 109.50000 418.400000
1010 15017 10476 1 109.50000 418.400000
2218 15017 6465 1 109.50000 418.400000
2218 15017 10476 1 109.50000 418.400000
6465 15017 10476 1 109.50000 418.400000
6728 15018 8309 1 109.50000 418.400000
6728 15018 8770 1 109.50000 418.400000
6728 15018 9422 1 109.50000 418.400000
8309 15018 8770 1 109.50000 418.400000
8309 15018 9422 1 109.50000 418.400000
8770 15018 9422 1 109.50000 418.400000
3378 15019 5391 1 109.50000 418.400000
3378 15019 9089 1 109.50000 418.400000
3378 15019 10477 1 109.50000 418.400000
5391 15019 9089 1 109.50000 418.400000
5391 15019 10477 1 109.50000 418.400000
9089 15019 10477 1 109.50000 418.400000
2213 15020 2727 1 109.50000 418.400000
2213 15020 8115 1 109.50000 418.400000
2213 15020 10478 1 109.50000 418.400000
2727 15020 8115 1 109.50000 418.400000
2727 15020 10478 1 109.50000 418.400000
8115 15020 10478 1 109.50000 418.400000
5543 15021 6382 1 109.50000 418.400000
5543 15021 9653 1 109.50000 418.400000
5543 15021 10479 1 109.50000 418.400000
6382 15021 9653 1 109.50000 418.400000
6382 15021 10479 1 109.50000 418.400000
9653 15021 10479 1 109.50000 418.400000
4451 15022 5832 1 109.50000 418.400000
4451 15022 6474 1 109.50000 418.400000
4451 15022 7854 1 109.50000 418.400000
5832 15022 6474 1 109.50000 418.400000
5832 15022 7854 1 109.50000 418.400000
6474 15022 7854 1 109.50000 418.400000
2543 15023 2638 1 109.50000 418.400000
2543 15023 8981 1 109.50000 418.400000
2543 15023 10072 1 109.50000 418.400000
2638 15023 8981 1 109.50000 418.400000
2638 15023 10072 1 109.50000 418.400000
8981 15023 10072 1 109.50000 418.400000
5791 15024 5792 1 109.50000 418.400000
5791 15024 5977 1 109.50000 418.400000
5791 15024 10220 1 109.50000 418.400000
5792 15024 5977 1 109.50000 418.400000
5792 15024 10220 1 109.50000 418.400000
5977 15024 10220 1 109.50000 418.400000
312 15025 9486 1 109.50000 418.400000
312 15025 10480 1 109.50000 418.400000
312 15025 10481 1 109.50000 418.400000
9486 15025 10480 1 109.50000 418.400000
9486 15025 10481 1 109.50000 418.400000
10480 15025 10481 1 109.50000 418.400000
1834 15026 3024 1 109.50000 418.400000
1834 15026 8442 1 109.50000 418.400000
1834 15026 10482 1 109.50000 418.400000
3024 15026 8442 1 109.50000 418.400000
3024 15026 10482 1 109.50000 418.400000
8442 15026 10482 1 109.50000 418.400000
2323 15027 6577 1 109.50000 418.400000
2323 15027 7918 1 109.50000 418.400000
2323 15027 10483 1 109.50000 418.400000
6577 15027 7918 1 109.50000 418.400000
6577 15027 10483 1 109.50000 418.400000
7918 15027 10483 1 109.50000 418.400000
1213 15028 2179 1 109.50000 418.400000
1213 15028 4972 1 109.50000 418.400000
1213 15028 10484 1 109.50000 418.400000
2179 15028 4972 1 109.50000 418.400000
2179 15028 10484 1 109.50000 418.400000
4972 15028 10484 1 109.50000 418.400000
6623 15029 9798 1 109.50000 418.400000
6623 15029 10407 1 109.50000 418.400000
6623 15029 10485 1 109.50000 418.400000
9798 15029 10407 1 109.50000 418.400000
9798 15029 10485 1 109.50000 418.400000
10407 15029 10485 1 109.50000 418.400000
7574 15030 8040 1 109.50000 418.400000
7574 15030 9946 1 109.50000 418.400000
7574 15030 10486 1 109.50000 418.400000
8040 15030 9946 1 109.50000 418.400000
8040 15030 10486 1 109.50000 418.400000
9946 15030 10486 1 109.50000 418.400000
4676 15031 4677 1 109.50000 418.400000
4676 15031 6975 1 109.50000 418.400000
4676 15031 8536 1 109.50000 418.400000
4677 15031 6975 1 109.50000 418.400000
4677 15031 8536 1 109.50000 418.400000
6975 15031 8536 1 109.50000 418.400000
1856 15032 8053 1 109.50000 418.400000
1856 15032 10487 1 109.50000 418.400000
1856 15032 10488 1 109.50000 418.400000
8053 15032 10487 1 109.50000 418.400000
8053 15032 10488 1 109.50000 418.400000
10487 15032 10488 1 109.50000 418.400000
2068 15033 4919 1 109.50000 418.400000
2068 15033 10489 1 109.50000 418.400000
2068 15033 10490 1 109.50000 418.400000
4919 15033 10489 1 109.50000 418.400000
4919 15033 10490 1 109.50000 418.400000
10489 15033 10490 1 109.50000 418.400000
1755 15034 10306 1 109.50000 418.400000
1755 15034 10307 1 109.50000 418.400000
1755 15034 11222 1 109.50000 418.400000
10306 15034 10307 1 109.50000 418.400000
10306 15034 11222 1 109.50000 418.400000
10307 15034 11222 1 109.50000 418.400000
5264 15035 5804 1 109.50000 418.400000
5264 15035 5826 1 109.50000 418.400000
5264 15035 9908 1 109.50000 418.400000
5804 15035 5826 1 109.50000 418.400000
5804 15035 9908 1 109.50000 418.400000
5826 15035 9908 1 109.50000 418.400000
5301 15036 7081 1 109.50000 418.400000
5301 15036 7306 1 109.50000 418.400000
5301 15036 10493 1 109.50000 418.400000
7081 15036 7306 1 109.50000 418.400000
7081 15036 10493 1 109.50000 418.400000
7306 15036 10493 1 109.50000 418.400000
1375 15037 4268 1 109.50000 418.400000
1375 15037 4314 1 109.50000 418.400000
1375 15037 6629 1 109.50000 418.400000
4268 15037 4314 1 109.50000 418.400000
4268 15037 6629 1 109.50000 418.400000
4314 15037 6629 1 109.50000 418.400000
6896 15038 6897 1 109.50000 418.400000
6896 15038 8546 1 109.50000 418.400000
6896 15038 9406 1 109.50000 418.400000
6897 15038 8546 1 109.50000 418.400000
6897 15038 9406 1 109.50000 418.400000
8546 15038 9406 1 109.50000 418.400000
7652 15039 9545 1 109.50000 418.400000
7652 15039 9838 1 109.50000 418.400000
7652 15039 10494 1 109.50000 418.400000
9545 15039 9838 1 109.50000 418.400000
9545 15039 10494 1 109.50000 418.400000
9838 15039 10494 1 109.50000 418.400000
6229 15040 9118 1 109.50000 418.400000
6229 15040 9119 1 109.50000 418.400000
6229 15040 10495 1 109.50000 418.400000
9118 15040 9119 1 109.50000 418.400000
9118 15040 10495 1 109.50000 418.400000
9119 15040 10495 1 109.50000 418.400000
3910 15041 8849 1 109.50000 418.400000
3910 15041 9763 1 109.50000 418.400000
3910 15041 10496 1 109.50000 418.400000
8849 15041 9763 1 109.50000 418.400000
8849 15041 10496 1 109.50000 418.400000
9763 15041 10496 1 109.50000 418.400000
1059 15042 6523 1 109.50000 418.400000
1059 15042 9526 1 109.50000 418.400000
1059 15042 10497 1 109.50000 418.400000
6523 15042 9526 1 109.50000 418.400000
6523 15042 10497 1 109.50000 418.400000
9526 15042 10497 1 109.50000 418.400000
921 15043 8669 1 109.50000 418.400000
921 15043 8758 1 109.50000 418.400000
921 15043 10498 1 109.50000 418.400000
8669 15043 8758 1 109.50000 418.400000
8669 15043 10498 1 109.50000 418.400000
8758 15043 10498 1 109.50000 418.400000
60 15044 7746 1 109.50000 418.400000
60 15044 10428 1 109.50000 418.400000
60 15044 10499 1 109.50000 418.400000
7746 15044 10428 1 109.50000 418.400000
7746 15044 10499 1 109.50000 418.400000
10428 15044 10499 1 109.50000 418.400000
4580 15045 6110 1 109.50000 418.400000
4580 15045 8265 1 109.50000 418.400000
4580 15045 10500 1 109.50000 418.400000
6110 15045 8265 1 109.50000 418.400000
6110 15045 10500 1 109.50000 418.400000
8265 15045 10500 1 109.50000 418.400000
880 15046 5678 1 109.50000 418.400000
880 15046 6347 1 109.50000 418.400000
880 15046 7992 1 109.50000 418.400000
5678 15046 6347 1 109.50000 418.400000
5678 15046 7992 1 109.50000 418.400000
6347 15046 7992 1 109.50000 418.400000
1115 15047 10150 1 109.50000 418.400000
1115 15047 10207 1 109.50000 418.400000
1115 15047 10501 1 109.50000 418.400000
10150 15047 10207 1 109.50000 418.400000
10150 15047 10501 1 109.50000 418.400000
10207 15047 10501 1 109.50000 418.400000
3967 15048 7502 1 109.50000 418.400000
3967 15048 8453 1 109.50000 418.400000
3967 15048 10289 1 109.50000 418.400000
7502 15048 8453 1 109.50000 418.400000
7502 15048 10289 1 109.50000 418.400000
8453 15048 10289 1 109.50000 418.400000
908 15049 1924 1 109.50000 418.400000
908 15049 1925 1 109.50000 418.400000
908 15049 3846 1 109.50000 418.400000
1924 15049 1925 1 109.50000 418.400000
1924 15049 3846 1 109.50000 418.400000
1925 15049 3846 1 109.50000 418.400000
5557 15050 8202 1 109.50000 418.400000
5557 15050 9729 1 109.50000 418.400000
5557 15050 9898 1 109.50000 418.400000
8202 15050 9729 1 109.50000 418.400000
8202 15050 9898 1 109.50000 418.400000
9729 15050 9898 1 109.50000 418.400000
1982 15051 6969 1 109.50000 418.400000
1982 15051 10502 1 109.50000 418.400000
1982 15051 10503 1 109.50000 418.400000
6969 15051 10502 1 109.50000 418.400000
6969 15051 10503 1 109.50000 418.400000
10502 15051 10503 1 109.50000 418.400000
3692 15052 7804 1 109.50000 418.400000
3692 15052 8027 1 109.50000 418.400000
3692 15052 10451 1 109.50000 418.400000
7804 15052 8027 1 109.50000 418.400000
7804 15052 10451 1 109.50000 418.400000
8027 15052 10451 1 109.50000 418.400000
2692 15053 5059 1 109.50000 418.400000
2692 15053 5061 1 109.50000 418.400000
2692 15053 10504 1 109.50000 418.400000
5059 15053 5061 1 109.50000 418.400000
5059 15053 10504 1 109.50000 418.400000
5061 15053 10504 1 109.50000 418.400000
384 15054 9948 1 109.50000 418.400000
384 15054 10505 1 109.50000 418.400000
384 15054 10506 1 109.50000 418.400000
9948 15054 10505 1 109.50000 418.400000
9948 15054 10506 1 109.50000 418.400000
10505 15054 10506 1 109.50000 418.400000
5306 15055 9550 1 109.50000 418.400000
5306 15055 10166 1 109.50000 418.400000
5306 15055 10507 1 109.50000 418.400000
9550 15055 10166 1 109.50000 418.400000
9550 15055 10507 1 109.50000 418.400000
10166 15055 10507 1 109.50000 418.400000
851 15056 1048 1 109.50000 418.400000
851 15056 7719 1 109.50000 418.400000
851 15056 10331 1 109.50000 418.400000
1048 15056 7719 1 109.50000 418.400000
1048 15056 10331 1 109.50000 418.400000
7719 15056 10331 1 109.50000 418.400000
2167 15057 3141 1 109.50000 418.400000
2167 15057 6090 1 109.50000 418.400000
2167 15057 6324 1 109.50000 418.400000
3141 15057 6090 1 109.50000 418.400000
3141 15057 6324 1 109.50000 418.400000
6090 15057 6324 1 109.50000 418.400000
10006 15058 10509 1 109.50000 418.400000
10006 15058 10510 1 109.50000 418.400000
10006 15058 10511 1 109.50000 418.400000
10509 15058 10510 1 109.50000 418.400000
10509 15058 10511 1 109.50000 418.400000
10510 15058 10511 1 109.50000 418.400000
916 15059 956 1 109.50000 418.400000
916 15059 6467 1 109.50000 418.400000
916 15059 9614 1 109.50000 418.400000
956 15059 6467 1 109.50000 418.400000
956 15059 9614 1 109.50000 418.400000
6467 15059 9614 1 109.50000 418.400000
3377 15060 4953 1 109.50000 418.400000
3377 15060 6929 1 109.50000 418.400000
3377 15060 10512 1 109.50000 418.400000
4953 15060 6929 1 109.50000 418.400000
4953 15060 10512 1 109.50000 418.400000
6929 15060 10512 1 109.50000 418.400000
190 15061 1003 1 109.50000 418.400000
190 15061 3612 1 109.50000 418.400000
190 15061 8408 1 109.50000 418.400000
1003 15061 3612 1 109.50000 418.400000
1003 15061 8408 1 109.50000 418.400000
3612 15061 8408 1 109.50000 418.400000
19 15062 4534 1 109.50000 418.400000
19 15062 9768 1 109.50000 418.400000
19 15062 11189 1 109.50000 418.400000
4534 15062 9768 1 109.50000 418.400000
4534 15062 11189 1 109.50000 418.400000
9768 15062 11189 1 109.50000 418.400000
2860 15063 8565 1 109.50000 418.400000
2860 15063 10515 1 109.50000 418.400000
2860 15063 10516 1 109.50000 418.400000
8565 15063 10515 1 109.50000 418.400000
8565 15063 10516 1 109.50000 418.400000
10515 15063 10516 1 109.50000 418.400000
522 15064 6758 1 109.50000 418.400000
522 15064 7316 1 109.50000 418.400000
522 15064 10517 1 109.50000 418.400000
6758 15064 7316 1 109.50000 418.400000
6758 15064 10517 1 109.50000 418.400000
7316 15064 10517 1 109.50000 418.400000
1033 15065 5554 1 109.50000 418.400000
1033 15065 6135 1 109.50000 418.400000
1033 15065 9179 1 109.50000 418.400000
5554 15065 6135 1 109.50000 418.400000
5554 15065 9179 1 109.50000 418.400000
6135 15065 9179 1 109.50000 418.400000
5824 15066 5825 1 109.50000 418.400000
5824 15066 5921 1 109.50000 418.400000
5824 15066 10519 1 109.50000 418.400000
5825 15066 5921 1 109.50000 418.400000
5825 15066 10519 1 109.50000 418.400000
5921 15066 10519 1 109.50000 418.400000
4642 15067 9312 1 109.50000 418.400000
4642 15067 9983 1 109.50000 418.400000
4642 15067 10520 1 109.50000 418.400000
9312 15067 9983 1 109.50000 418.400000
9312 15067 10520 1 109.50000 418.400000
9983 15067 10520 1 109.50000 418.400000
1138 15068 5613 1 109.50000 418.400000
1138 15068 5960 1 109.50000 418.400000
1138 15068 9657 1 109.50000 418.400000
5613 15068 5960 1 109.50000 418.400000
5613 15068 9657 1 109.50000 418.400000
5960 15068 9657 1 109.50000 418.400000
5520 15069 10398 1 109.50000 418.400000
5520 15069 10522 1 109.50000 418.400000
5520 15069 10523 1 109.50000 418.400000
10398 15069 10522 1 109.50000 418.400000
10398 15069 10523 1 109.50000 418.400000
10522 15069 10523 1 109.50000 418.400000
4798 15070 6333 1 109.50000 418.400000
4798 15070 8425 1 109.50000 418.400000
4798 15070 8839 1 109.50000 418.400000
6333 15070 8425 1 109.50000 418.400000
6333 15070 8839 1 109.50000 418.400000
8425 15070 8839 1 109.50000 418.400000
5658 15071 10447 1 109.50000 418.400000
5658 15071 10524 1 109.50000 418.400000
5658 15071 10525 1 109.50000 418.400000
10447 15071 10524 1 109.50000 418.400000
10447 15071 10525 1 109.50000 418.400000
10524 15071 10525 1 109.50000 418.400000
6771 15072 9040 1 109.50000 418.400000
6771 15072 9325 1 109.50000 418.400000
6771 15072 10526 1 109.50000 418.400000
9040 15072 9325 1 109.50000 418.400000
9040 15072 10526 1 109.50000 418.400000
9325 15072 10526 1 109.50000 418.400000
1418 15073 3305 1 109.50000 418.400000
1418 15073 3516 1 109.50000 418.400000
1418 15073 4147 1 109.50000 418.400000
3305 15073 3516 1 109.50000 418.400000
3305 15073 4147 1 109.50000 418.400000
3516 15073 4147 1 109.50000 418.400000
6612 15074 9076 1 109.50000 418.400000
6612 15074 10373 1 109.50000 418.400000
6612 15074 10527 1 109.50000 418.400000
9076 15074 10373 1 109.50000 418.400000
9076 15074 10527 1 109.50000 418.400000
10373 15074 10527 1 109.50000 418.400000
2353 15075 8421 1 109.50000 418.400000
2353 15075 8847 1 109.50000 418.400000
2353 15075 10528 1 109.50000 418.400000
8421 15075 8847 1 109.50000 418.400000
8421 15075 10528 1 109.50000 418.400000
8847 15075 10528 1 109.50000 418.400000
8436 15076 9330 1 109.50000 418.400000
8436 15076 10051 1 109.50000 418.400000
8436 15076 10171 1 109.50000 418.400000
9330 15076 10051 1 109.50000 418.400000
9330 15076 10171 1 109.50000 418.400000
10051 15076 10171 1 109.50000 418.400000
1906 15077 5364 1 109.50000 418.400000
1906 15077 10482 1 109.50000 418.400000
1906 15077 10529 1 109.50000 418.400000
5364 15077 10482 1 109.50000 418.400000
5364 15077 10529 1 109.50000 418.400000
10482 15077 10529 1 109.50000 418.400000
7042 15078 7431 1 109.50000 418.400000
7042 15078 7432 1 109.50000 418.400000
7042 15078 10530 1 109.50000 418.400000
7431 15078 7432 1 109.50000 418.400000
7431 15078 10530 1 109.50000 418.400000
7432 15078 10530 1 109.50000 418.400000
4589 15079 4590 1 109.50000 418.400000
4589 15079 4591 1 109.50000 418.400000
4589 15079 4592 1 109.50000 418.400000
4590 15079 4591 1 109.50000 418.400000
4590 15079 4592 1 109.50000 418.400000
4591 15079 4592 1 109.50000 418.400000
2050 15080 5022 1 109.50000 418.400000
2050 15080 9619 1 109.50000 418.400000
2050 15080 9988 1 109.50000 418.400000
5022 15080 9619 1 109.50000 418.400000
5022 15080 9988 1 109.50000 418.400000
9619 15080 9988 1 109.50000 418.400000
3107 15081 3108 1 109.50000 418.400000
3107 15081 8883 1 109.50000 418.400000
3107 15081 10533 1 109.50000 418.400000
3108 15081 8883 1 109.50000 418.400000
3108 15081 10533 1 109.50000 418.400000
8883 15081 10533 1 109.50000 418.400000
3916 15082 7272 1 109.50000 418.400000
3916 15082 10534 1 109.50000 418.400000
3916 15082 10535 1 109.50000 418.400000
7272 15082 10534 1 109.50000 418.400000
7272 15082 10535 1 109.50000 418.400000
10534 15082 10535 1 109.50000 418.400000
2295 15083 3121 1 109.50000 418.400000
2295 15083 4767 1 109.50000 418.400000
2295 15083 10536 1 109.50000 418.400000
3121 15083 4767 1 109.50000 418.400000
3121 15083 10536 1 109.50000 418.400000
4767 15083 10536 1 109.50000 418.400000
4099 15084 8229 1 109.50000 418.400000
4099 15084 9169 1 109.50000 418.400000
4099 15084 10537 1 109.50000 418.400000
8229 15084 9169 1 109.50000 418.400000
8229 15084 10537 1 109.50000 418.400000
9169 15084 10537 1 109.50000 418.400000
4248 15085 6373 1 109.50000 418.400000
4248 15085 9742 1 109.50000 418.400000
4248 15085 10538 1 109.50000 418.400000
6373 15085 9742 1 109.50000 418.400000
6373 15085 10538 1 109.50000 418.400000
9742 15085 10538 1 109.50000 418.400000
1825 15086 6002 1 109.50000 418.400000
1825 15086 9226 1 109.50000 418.400000
1825 15086 10539 1 109.50000 418.400000
6002 15086 9226 1 109.50000 418.400000
6002 15086 10539 1 109.50000 418.400000
9226 15086 10539 1 109.50000 418.400000
1267 15087 1846 1 109.50000 418.400000
1267 15087 8972 1 109.50000 418.400000
1267 15087 10540 1 109.50000 418.400000
1846 15087 8972 1 109.50000 418.400000
1846 15087 10540 1 109.50000 418.400000
8972 15087 10540 1 109.50000 418.400000
3280 15088 10304 1 109.50000 418.400000
3280 15088 10541 1 109.50000 418.400000
3280 15088 10542 1 109.50000 418.400000
10304 15088 10541 1 109.50000 418.400000
10304 15088 10542 1 109.50000 418.400000
10541 15088 10542 1 109.50000 418.400000
4471 15089 7494 1 109.50000 418.400000
4471 15089 8023 1 109.50000 418.400000
4471 15089 10543 1 109.50000 418.400000
7494 15089 8023 1 109.50000 418.400000
7494 15089 10543 1 109.50000 418.400000
8023 15089 10543 1 109.50000 418.400000
8313 15090 8315 1 109.50000 418.400000
8313 15090 10516 1 109.50000 418.400000
8313 15090 10544 1 109.50000 418.400000
8315 15090 10516 1 109.50000 418.400000
8315 15090 10544 1 109.50000 418.400000
10516 15090 10544 1 109.50000 418.400000
7688 15091 9124 1 109.50000 418.400000
7688 15091 10032 1 109.50000 418.400000
7688 15091 10545 1 109.50000 418.400000
9124 15091 10032 1 109.50000 418.400000
9124 15091 10545 1 109.50000 418.400000
10032 15091 10545 1 109.50000 418.400000
4071 15092 4438 1 109.50000 418.400000
4071 15092 10546 1 109.50000 418.400000
4071 15092 10547 1 109.50000 418.400000
4438 15092 10546 1 109.50000 418.400000
4438 15092 10547 1 109.50000 418.400000
10546 15092 10547 1 109.50000 418.400000
2337 15093 2339 1 109.50000 418.400000
2337 15093 2340 1 109.50000 418.400000
2337 15093 10548 1 109.50000 418.400000
2339 15093 2340 1 109.50000 418.400000
2339 15093 10548 1 109.50000 418.400000
2340 15093 10548 1 109.50000 418.400000
3375 15094 10550 1 109.50000 418.400000
3375 15094 10551 1 109.50000 418.400000
3375 15094 10552 1 109.50000 418.400000
10550 15094 10551 1 109.50000 418.400000
10550 15094 10552 1 109.50000 418.400000
10551 15094 10552 1 109.50000 418.400000
6628 15095 7326 1 109.50000 418.400000
6628 15095 10243 1 109.50000 418.400000
6628 15095 10252 1 109.50000 418.400000
7326 15095 10243 1 109.50000 418.400000
7326 15095 10252 1 109.50000 418.400000
10243 15095 10252 1 109.50000 418.400000
4820 15096 5515 1 109.50000 418.400000
4820 15096 9136 1 109.50000 418.400000
4820 15096 10553 1 109.50000 418.400000
5515 15096 9136 1 109.50000 418.400000
5515 15096 10553 1 109.50000 418.400000
9136 15096 10553 1 109.50000 418.400000
2194 15097 8668 1 109.50000 418.400000
2194 15097 10554 1 109.50000 418.400000
2194 15097 10555 1 109.50000 418.400000
8668 15097 10554 1 109.50000 418.400000
8668 15097 10555 1 109.50000 418.400000
10554 15097 10555 1 109.50000 418.400000
2544 15098 10556 1 109.50000 418.400000
2544 15098 10557 1 109.50000 418.400000
2544 15098 10558 1 109.50000 418.400000
10556 15098 10557 1 109.50000 418.400000
10556 15098 10558 1 109.50000 418.400000
10557 15098 10558 1 109.50000 418.400000
298 15099 8141 1 109.50000 418.400000
298 15099 10295 1 109.50000 418.400000
298 15099 10486 1 109.50000 418.400000
8141 15099 10295 1 109.50000 418.400000
8141 15099 10486 1 109.50000 418.400000
10295 15099 10486 1 109.50000 418.400000
3125 15100 9116 1 109.50000 418.400000
3125 15100 10380 1 109.50000 418.400000
3125 15100 10559 1 109.50000 418.400000
9116 15100 10380 1 109.50000 418.400000
9116 15100 10559 1 109.50000 418.400000
10380 15100 10559 1 109.50000 418.400000
7871 15101 10562 1 109.50000 418.400000
7871 15101 10563 1 109.50000 418.400000
7871 15101 10564 1 109.50000 418.400000
10562 15101 10563 1 109.50000 418.400000
10562 15101 10564 1 109.50000 418.400000
10563 15101 10564 1 109.50000 418.400000
1553 15102 6858 1 109.50000 418.400000
1553 15102 9887 1 109.50000 418.400000
1553 15102 10565 1 109.50000 418.400000
6858 15102 9887 1 109.50000 418.400000
6858 15102 10565 1 109.50000 418.400000
9887 15102 10565 1 109.50000 418.400000
4358 15103 7137 1 109.50000 418.400000
4358 15103 7817 1 109.50000 418.400000
4358 15103 10566 1 109.50000 418.400000
7137 15103 7817 1 109.50000 418.400000
7137 15103 10566 1 109.50000 418.400000
7817 15103 10566 1 109.50000 418.400000
2996 15104 4584 1 109.50000 418.400000
2996 15104 10567 1 109.50000 418.400000
2996 15104 11202 1 109.50000 418.400000
4584 15104 10567 1 109.50000 418.400000
4584 15104 11202 1 109.50000 418.400000
10567 15104 11202 1 109.50000 418.400000
1525 15105 8743 1 109.50000 418.400000
1525 15105 10233 1 109.50000 418.400000
1525 15105 10568 1 109.50000 418.400000
8743 15105 10233 1 109.50000 418.400000
8743 15105 10568 1 109.50000 418.400000
10233 15105 10568 1 109.50000 418.400000
6006 15106 9919 1 109.50000 418.400000
6006 15106 10569 1 109.50000 418.400000
6006 15106 10570 1 109.50000 418.400000
9919 15106 10569 1 109.50000 418.400000
9919 15106 10570 1 109.50000 418.400000
10569 15106 10570 1 109.50000 418.400000
3924 15107 7261 1 109.50000 418.400000
3924 15107 9703 1 109.50000 418.400000
3924 15107 10571 1 109.50000 418.400000
7261 15107 9703 1 109.50000 418.400000
7261 15107 10571 1 109.50000 418.400000
9703 15107 10571 1 109.50000 418.400000
5174 15108 8482 1 109.50000 418.400000
5174 15108 9031 1 109.50000 418.400000
5174 15108 10558 1 109.50000 418.400000
8482 15108 9031 1 109.50000 418.400000
8482 15108 10558 1 109.50000 418.400000
9031 15108 10558 1 109.50000 418.400000
534 15109 4768 1 109.50000 418.400000
534 15109 6171 1 109.50000 418.400000
534 15109 10009 1 109.50000 418.400000
4768 15109 6171 1 109.50000 418.400000
4768 15109 10009 1 109.50000 418.400000
6171 15109 10009 1 109.50000 418.400000
2169 15110 6712 1 109.50000 418.400000
2169 15110 8060 1 109.50000 418.400000
2169 15110 10573 1 109.50000 418.400000
6712 15110 8060 1 109.50000 418.400000
6712 15110 10573 1 109.50000 418.400000
8060 15110 10573 1 109.50000 418.400000
4666 15111 9753 1 109.50000 418.400000
4666 15111 10506 1 109.50000 418.400000
4666 15111 10574 1 109.50000 418.400000
9753 15111 10506 1 109.50000 418.400000
9753 15111 10574 1 109.50000 418.400000
10506 15111 10574 1 109.50000 418.400000
9303 15112 10575 1 109.50000 418.400000
9303 15112 10576 1 109.50000 418.400000
9303 15112 10577 1 109.50000 418.400000
10575 15112 10576 1 109.50000 418.400000
10575 15112 10577 1 109.50000 418.400000
10576 15112 10577 1 109.50000 418.400000
1358 15113 2035 1 109.50000 418.400000
1358 15113 3304 1 109.50000 418.400000
1358 15113 5865 1 109.50000 418.400000
2035 15113 3304 1 109.50000 418.400000
2035 15113 5865 1 109.50000 418.400000
3304 15113 5865 1 109.50000 418.400000
1350 15114 1352 1 109.50000 418.400000
1350 15114 9334 1 109.50000 418.400000
1350 15114 10578 1 109.50000 418.400000
1352 15114 9334 1 109.50000 418.400000
1352 15114 10578 1 109.50000 418.400000
9334 15114 10578 1 109.50000 418.400000
498 15115 4909 1 109.50000 418.400000
498 15115 8118 1 109.50000 418.400000
498 15115 9495 1 109.50000 418.400000
4909 15115 8118 1 109.50000 418.400000
4909 15115 9495 1 109.50000 418.400000
8118 15115 9495 1 109.50000 418.400000
1860 15116 8059 1 109.50000 418.400000
1860 15116 10579 1 109.50000 418.400000
1860 15116 10580 1 109.50000 418.400000
8059 15116 10579 1 109.50000 418.400000
8059 15116 10580 1 109.50000 418.400000
10579 15116 10580 1 109.50000 418.400000
749 15117 7519 1 109.50000 418.400000
749 15117 9308 1 109.50000 418.400000
749 15117 10173 1 109.50000 418.400000
7519 15117 9308 1 109.50000 418.400000
7519 15117 10173 1 109.50000 418.400000
9308 15117 10173 1 109.50000 418.400000
827 15118 3336 1 109.50000 418.400000
827 15118 10314 1 109.50000 418.400000
827 15118 10583 1 109.50000 418.400000
3336 15118 10314 1 109.50000 418.400000
3336 15118 10583 1 109.50000 418.400000
10314 15118 10583 1 109.50000 418.400000
1513 15119 10262 1 109.50000 418.400000
1513 15119 10584 1 109.50000 418.400000
1513 15119 10585 1 109.50000 418.400000
10262 15119 10584 1 109.50000 418.400000
10262 15119 10585 1 109.50000 418.400000
10584 15119 10585 1 109.50000 418.400000
8249 15120 9072 1 109.50000 418.400000
8249 15120 10316 1 109.50000 418.400000
8249 15120 10586 1 109.50000 418.400000
9072 15120 10316 1 109.50000 418.400000
9072 15120 10586 1 109.50000 418.400000
10316 15120 10586 1 109.50000 418.400000
4110 15121 4812 1 109.50000 418.400000
4110 15121 9873 1 109.50000 418.400000
4110 15121 10588 1 109.50000 418.400000
4812 15121 9873 1 109.50000 418.400000
4812 15121 10588 1 109.50000 418.400000
9873 15121 10588 1 109.50000 418.400000
3526 15122 4610 1 109.50000 418.400000
3526 15122 6491 1 109.50000 418.400000
3526 15122 9551 1 109.50000 418.400000
4610 15122 6491 1 109.50000 418.400000
4610 15122 9551 1 109.50000 418.400000
6491 15122 9551 1 109.50000 418.400000
884 15123 5647 1 109.50000 418.400000
884 15123 8128 1 109.50000 418.400000
884 15123 8348 1 109.50000 418.400000
5647 15123 8128 1 109.50000 418.400000
5647 15123 8348 1 109.50000 418.400000
8128 15123 8348 1 109.50000 418.400000
636 15124 4170 1 109.50000 418.400000
636 15124 8775 1 109.50000 418.400000
636 15124 10589 1 109.50000 418.400000
4170 15124 8775 1 109.50000 418.400000
4170 15124 10589 1 109.50000 418.400000
8775 15124 10589 1 109.50000 418.400000
794 15125 7801 1 109.50000 418.400000
794 15125 8113 1 109.50000 418.400000
794 15125 10590 1 109.50000 418.400000
7801 15125 8113 1 109.50000 418.400000
7801 15125 10590 1 109.50000 418.400000
8113 15125 10590 1 109.50000 418.400000
1184 15126 3868 1 109.50000 418.400000
1184 15126 4616 1 109.50000 418.400000
1184 15126 8197 1 109.50000 418.400000
3868 15126 4616 1 109.50000 418.400000
3868 15126 8197 1 109.50000 418.400000
4616 15126 8197 1 109.50000 418.400000
4348 15127 6540 1 109.50000 418.400000
4348 15127 8165 1 109.50000 418.400000
4348 15127 10594 1 109.50000 418.400000
6540 15127 8165 1 109.50000 418.400000
6540 15127 10594 1 109.50000 418.400000
8165 15127 10594 1 109.50000 418.400000
1140 15128 5803 1 109.50000 418.400000
1140 15128 9840 1 109.50000 418.400000
1140 15128 10595 1 109.50000 418.400000
5803 15128 9840 1 109.50000 418.400000
5803 15128 10595 1 109.50000 418.400000
9840 15128 10595 1 109.50000 418.400000
8329 15129 9014 1 109.50000 418.400000
8329 15129 10530 1 109.50000 418.400000
8329 15129 10596 1 109.50000 418.400000
9014 15129 10530 1 109.50000 418.400000
9014 15129 10596 1 109.50000 418.400000
10530 15129 10596 1 109.50000 418.400000
3881 15130 4476 1 109.50000 418.400000
3881 15130 10508 1 109.50000 418.400000
3881 15130 10597 1 109.50000 418.400000
4476 15130 10508 1 109.50000 418.400000
4476 15130 10597 1 109.50000 418.400000
10508 15130 10597 1 109.50000 418.400000
5108 15131 7532 1 109.50000 418.400000
5108 15131 10478 1 109.50000 418.400000
5108 15131 10598 1 109.50000 418.400000
7532 15131 10478 1 109.50000 418.400000
7532 15131 10598 1 109.50000 418.400000
10478 15131 10598 1 109.50000 418.400000
1408 15132 3486 1 109.50000 418.400000
1408 15132 7430 1 109.50000 418.400000
1408 15132 10599 1 109.50000 418.400000
3486 15132 7430 1 109.50000 418.400000
3486 15132 10599 1 109.50000 418.400000
7430 15132 10599 1 109.50000 418.400000
2478 15133 4142 1 109.50000 418.400000
2478 15133 10600 1 109.50000 418.400000
2478 15133 10601 1 109.50000 418.400000
4142 15133 10600 1 109.50000 418.400000
4142 15133 10601 1 109.50000 418.400000
10600 15133 10601 1 109.50000 418.400000
3183 15134 6937 1 109.50000 418.400000
3183 15134 8350 1 109.50000 418.400000
3183 15134 10566 1 109.50000 418.400000
6937 15134 8350 1 109.50000 418.400000
6937 15134 10566 1 109.50000 418.400000
8350 15134 10566 1 109.50000 418.400000
1748 15135 6738 1 109.50000 418.400000
1748 15135 6981 1 109.50000 418.400000
1748 15135 9900 1 109.50000 418.400000
6738 15135 6981 1 109.50000 418.400000
6738 15135 9900 1 109.50000 418.400000
6981 15135 9900 1 109.50000 418.400000
5461 15136 8471 1 109.50000 418.400000
5461 15136 9234 1 109.50000 418.400000
5461 15136 10602 1 109.50000 418.400000
8471 15136 9234 1 109.50000 418.400000
8471 15136 10602 1 109.50000 418.400000
9234 15136 10602 1 109.50000 418.400000
6938 15137 10068 1 109.50000 418.400000
6938 15137 10603 1 109.50000 418.400000
6938 15137 10604 1 109.50000 418.400000
10068 15137 10603 1 109.50000 418.400000
10068 15137 10604 1 109.50000 418.400000
10603 15137 10604 1 109.50000 418.400000
6763 15138 6773 1 109.50000 418.400000
6763 15138 9970 1 109.50000 418.400000
6763 15138 10605 1 109.50000 418.400000
6773 15138 9970 1 109.50000 418.400000
6773 15138 10605 1 109.50000 418.400000
9970 15138 10605 1 109.50000 418.400000
4524 15139 8510 1 109.50000 418.400000
4524 15139 8959 1 109.50000 418.400000
4524 15139 10606 1 109.50000 418.400000
8510 15139 8959 1 109.50000 418.400000
8510 15139 10606 1 109.50000 418.400000
8959 15139 10606 1 109.50000 418.400000
4351 15140 4669 1 109.50000 418.400000
4351 15140 7078 1 109.50000 418.400000
4351 15140 7337 1 109.50000 418.400000
4669 15140 7078 1 109.50000 418.400000
4669 15140 7337 1 109.50000 418.400000
7078 15140 7337 1 109.50000 418.400000
326 15141 2174 1 109.50000 418.400000
326 15141 8260 1 109.50000 418.400000
326 15141 9627 1 109.50000 418.400000
2174 15141 8260 1 109.50000 418.400000
2174 15141 9627 1 109.50000 418.400000
8260 15141 9627 1 109.50000 418.400000
3970 15142 7312 1 109.50000 418.400000
3970 15142 10608 1 109.50000 418.400000
3970 15142 10609 1 109.50000 418.400000
7312 15142 10608 1 109.50000 418.400000
7312 15142 10609 1 109.50000 418.400000
10608 15142 10609 1 109.50000 418.400000
8354 15143 10591 1 109.50000 418.400000
8354 15143 10610 1 109.50000 418.400000
8354 15143 10611 1 109.50000 418.400000
10591 15143 10610 1 109.50000 418.400000
10591 15143 10611 1 109.50000 418.400000
10610 15143 10611 1 109.50000 418.400000
6134 15144 7281 1 109.50000 418.400000
6134 15144 7282 1 109.50000 418.400000
6134 15144 8964 1 109.50000 418.400000
7281 15144 7282 1 109.50000 418.400000
7281 15144 8964 1 109.50000 418.400000
7282 15144 8964 1 109.50000 418.400000
6596 15145 10585 1 109.50000 418.400000
6596 15145 10612 1 109.50000 418.400000
6596 15145 10613 1 109.50000 418.400000
10585 15145 10612 1 109.50000 418.400000
10585 15145 10613 1 109.50000 418.400000
10612 15145 10613 1 109.50000 418.400000
575 15146 6299 1 109.50000 418.400000
575 15146 8859 1 109.50000 418.400000
575 15146 10251 1 109.50000 418.400000
6299 15146 8859 1 109.50000 418.400000
6299 15146 10251 1 109.50000 418.400000
8859 15146 10251 1 109.50000 418.400000
1598 15147 7689 1 109.50000 418.400000
1598 15147 10257 1 109.50000 418.400000
1598 15147 10614 1 109.50000 418.400000
7689 15147 10257 1 109.50000 418.400000
7689 15147 10614 1 109.50000 418.400000
10257 15147 10614 1 109.50000 418.400000
4043 15148 9909 1 109.50000 418.400000
4043 15148 10382 1 109.50000 418.400000
4043 15148 10519 1 109.50000 418.400000
9909 15148 10382 1 109.50000 418.400000
9909 15148 10519 1 109.50000 418.400000
10382 15148 10519 1 109.50000 418.400000
586 15149 3442 1 109.50000 418.400000
586 15149 7274 1 109.50000 418.400000
586 15149 10615 1 109.50000 418.400000
3442 15149 7274 1 109.50000 418.400000
3442 15149 10615 1 109.50000 418.400000
7274 15149 10615 1 109.50000 418.400000
4122 15150 6022 1 109.50000 418.400000
4122 15150 8533 1 109.50000 418.400000
4122 15150 8951 1 109.50000 418.400000
6022 15150 8533 1 109.50000 418.400000
6022 15150 8951 1 109.50000 418.400000
8533 15150 8951 1 109.50000 418.400000
627 15151 3898 1 109.50000 418.400000
627 15151 10323 1 109.50000 418.400000
627 15151 10616 1 109.50000 418.400000
3898 15151 10323 1 109.50000 418.400000
3898 15151 10616 1 109.50000 418.400000
10323 15151 10616 1 109.50000 418.400000
910 15152 4273 1 109.50000 418.400000
910 15152 10617 1 109.50000 418.400000
910 15152 10618 1 109.50000 418.400000
4273 15152 10617 1 109.50000 418.400000
4273 15152 10618 1 109.50000 418.400000
10617 15152 10618 1 109.50000 418.400000
1537 15153 3582 1 109.50000 418.400000
1537 15153 10430 1 109.50000 418.400000
1537 15153 10619 1 109.50000 418.400000
3582 15153 10430 1 109.50000 418.400000
3582 15153 10619 1 109.50000 418.400000
10430 15153 10619 1 109.50000 418.400000
92 15154 814 1 109.50000 418.400000
92 15154 6854 1 109.50000 418.400000
92 15154 11238 1 109.50000 418.400000
814 15154 6854 1 109.50000 418.400000
814 15154 11238 1 109.50000 418.400000
6854 15154 11238 1 109.50000 418.400000
7172 15155 7521 1 109.50000 418.400000
7172 15155 7522 1 109.50000 418.400000
7172 15155 8953 1 109.50000 418.400000
7521 15155 7522 1 109.50000 418.400000
7521 15155 8953 1 109.50000 418.400000
7522 15155 8953 1 109.50000 418.400000
2282 15156 6762 1 109.50000 418.400000
2282 15156 6763 1 109.50000 418.400000
2282 15156 10526 1 109.50000 418.400000
6762 15156 6763 1 109.50000 418.400000
6762 15156 10526 1 109.50000 418.400000
6763 15156 10526 1 109.50000 418.400000
4282 15157 9442 1 109.50000 418.400000
4282 15157 10620 1 109.50000 418.400000
4282 15157 10621 1 109.50000 418.400000
9442 15157 10620 1 109.50000 418.400000
9442 15157 10621 1 109.50000 418.400000
10620 15157 10621 1 109.50000 418.400000
2837 15158 6315 1 109.50000 418.400000
2837 15158 10008 1 109.50000 418.400000
2837 15158 10622 1 109.50000 418.400000
6315 15158 10008 1 109.50000 418.400000
6315 15158 10622 1 109.50000 418.400000
10008 15158 10622 1 109.50000 418.400000
10188 15159 10623 1 109.50000 418.400000
10188 15159 10624 1 109.50000 418.400000
10188 15159 10647 1 109.50000 418.400000
10623 15159 10624 1 109.50000 418.400000
10623 15159 10647 1 109.50000 418.400000
10624 15159 10647 1 109.50000 418.400000
8082 15160 8749 1 109.50000 418.400000
8082 15160 10147 1 109.50000 418.400000
8082 15160 10627 1 109.50000 418.400000
8749 15160 10147 1 109.50000 418.400000
8749 15160 10627 1 109.50000 418.400000
10147 15160 10627 1 109.50000 418.400000
5231 15161 5233 1 109.50000 418.400000
5231 15161 10629 1 109.50000 418.400000
5231 15161 10630 1 109.50000 418.400000
5233 15161 10629 1 109.50000 418.400000
5233 15161 10630 1 109.50000 418.400000
10629 15161 10630 1 109.50000 418.400000
336 15162 337 1 109.50000 418.400000
336 15162 339 1 109.50000 418.400000
336 15162 10631 1 109.50000 418.400000
337 15162 339 1 109.50000 418.400000
337 15162 10631 1 109.50000 418.400000
339 15162 10631 1 109.50000 418.400000
3277 15163 4188 1 109.50000 418.400000
3277 15163 7117 1 109.50000 418.400000
3277 15163 9737 1 109.50000 418.400000
4188 15163 7117 1 109.50000 418.400000
4188 15163 9737 1 109.50000 418.400000
7117 15163 9737 1 109.50000 418.400000
602 15164 716 1 109.50000 418.400000
602 15164 717 1 109.50000 418.400000
602 15164 9198 1 109.50000 418.400000
716 15164 717 1 109.50000 418.400000
716 15164 9198 1 109.50000 418.400000
717 15164 9198 1 109.50000 418.400000
2418 15165 6080 1 109.50000 418.400000
2418 15165 10432 1 109.50000 418.400000
2418 15165 10632 1 109.50000 418.400000
6080 15165 10432 1 109.50000 418.400000
6080 15165 10632 1 109.50000 418.400000
10432 15165 10632 1 109.50000 418.400000
387 15166 6430 1 109.50000 418.400000
387 15166 10142 1 109.50000 418.400000
387 15166 10633 1 109.50000 418.400000
6430 15166 10142 1 109.50000 418.400000
6430 15166 10633 1 109.50000 418.400000
10142 15166 10633 1 109.50000 418.400000
3229 15167 8247 1 109.50000 418.400000
3229 15167 8301 1 109.50000 418.400000
3229 15167 10121 1 109.50000 418.400000
8247 15167 8301 1 109.50000 418.400000
8247 15167 10121 1 109.50000 418.400000
8301 15167 10121 1 109.50000 418.400000
1512 15168 10342 1 109.50000 418.400000
1512 15168 10627 1 109.50000 418.400000
1512 15168 10634 1 109.50000 418.400000
10342 15168 10627 1 109.50000 418.400000
10342 15168 10634 1 109.50000 418.400000
10627 15168 10634 1 109.50000 418.400000
1061 15169 2228 1 109.50000 418.400000
1061 15169 3426 1 109.50000 418.400000
1061 15169 7005 1 109.50000 418.400000
2228 15169 3426 1 109.50000 418.400000
2228 15169 7005 1 109.50000 418.400000
3426 15169 7005 1 109.50000 418.400000
4566 15170 10131 1 109.50000 418.400000
4566 15170 10635 1 109.50000 418.400000
4566 15170 10636 1 109.50000 418.400000
10131 15170 10635 1 109.50000 418.400000
10131 15170 10636 1 109.50000 418.400000
10635 15170 10636 1 109.50000 418.400000
6153 15171 7610 1 109.50000 418.400000
6153 15171 8341 1 109.50000 418.400000
6153 15171 10485 1 109.50000 418.400000
7610 15171 8341 1 109.50000 418.400000
7610 15171 10485 1 109.50000 418.400000
8341 15171 10485 1 109.50000 418.400000
1332 15172 7959 1 109.50000 418.400000
1332 15172 9628 1 109.50000 418.400000
1332 15172 10637 1 109.50000 418.400000
7959 15172 9628 1 109.50000 418.400000
7959 15172 10637 1 109.50000 418.400000
9628 15172 10637 1 109.50000 418.400000
4582 15173 4619 1 109.50000 418.400000
4582 15173 6934 1 109.50000 418.400000
4582 15173 10638 1 109.50000 418.400000
4619 15173 6934 1 109.50000 418.400000
4619 15173 10638 1 109.50000 418.400000
6934 15173 10638 1 109.50000 418.400000
10639 15174 10640 1 109.50000 418.400000
10639 15174 10641 1 109.50000 418.400000
10639 15174 10642 1 109.50000 418.400000
10640 15174 10641 1 109.50000 418.400000
10640 15174 10642 1 109.50000 418.400000
10641 15174 10642 1 109.50000 418.400000
2352 15175 6169 1 109.50000 418.400000
2352 15175 9994 1 109.50000 418.400000
2352 15175 10643 1 109.50000 418.400000
6169 15175 9994 1 109.50000 418.400000
6169 15175 10643 1 109.50000 418.400000
9994 15175 10643 1 109.50000 418.400000
1487 15176 8677 1 109.50000 418.400000
1487 15176 9791 1 109.50000 418.400000
1487 15176 10644 1 109.50000 418.400000
8677 15176 9791 1 109.50000 418.400000
8677 15176 10644 1 109.50000 418.400000
9791 15176 10644 1 109.50000 418.400000
4749 15177 8505 1 109.50000 418.400000
4749 15177 8935 1 109.50000 418.400000
4749 15177 10361 1 109.50000 418.400000
8505 15177 8935 1 109.50000 418.400000
8505 15177 10361 1 109.50000 418.400000
8935 15177 10361 1 109.50000 418.400000
3552 15178 4699 1 109.50000 418.400000
3552 15178 6692 1 109.50000 418.400000
3552 15178 10552 1 109.50000 418.400000
4699 15178 6692 1 109.50000 418.400000
4699 15178 10552 1 109.50000 418.400000
6692 15178 10552 1 109.50000 418.400000
4246 15179 4486 1 109.50000 418.400000
4246 15179 10645 1 109.50000 418.400000
4246 15179 10646 1 109.50000 418.400000
4486 15179 10645 1 109.50000 418.400000
4486 15179 10646 1 109.50000 418.400000
10645 15179 10646 1 109.50000 418.400000
6830 15180 8292 1 109.50000 418.400000
6830 15180 9759 1 109.50000 418.400000
6830 15180 10647 1 109.50000 418.400000
8292 15180 9759 1 109.50000 418.400000
8292 15180 10647 1 109.50000 418.400000
9759 15180 10647 1 109.50000 418.400000
3726 15181 6710 1 109.50000 418.400000
3726 15181 9077 1 109.50000 418.400000
3726 15181 10648 1 109.50000 418.400000
6710 15181 9077 1 109.50000 418.400000
6710 15181 10648 1 109.50000 418.400000
9077 15181 10648 1 109.50000 418.400000
2588 15182 5888 1 109.50000 418.400000
2588 15182 10276 1 109.50000 418.400000
2588 15182 10649 1 109.50000 418.400000
5888 15182 10276 1 109.50000 418.400000
5888 15182 10649 1 109.50000 418.400000
10276 15182 10649 1 109.50000 418.400000
4917 15183 5769 1 109.50000 418.400000
4917 15183 7647 1 109.50000 418.400000
4917 15183 10650 1 109.50000 418.400000
5769 15183 7647 1 109.50000 418.400000
5769 15183 10650 1 109.50000 418.400000
7647 15183 10650 1 109.50000 418.400000
5539 15184 5724 1 109.50000 418.400000
5539 15184 10651 1 109.50000 418.400000
5539 15184 10652 1 109.50000 418.400000
5724 15184 10651 1 109.50000 418.400000
5724 15184 10652 1 109.50000 418.400000
10651 15184 10652 1 109.50000 418.400000
218 15185 3678 1 109.50000 418.400000
218 15185 7065 1 109.50000 418.400000
218 15185 10653 1 109.50000 418.400000
3678 15185 7065 1 109.50000 418.400000
3678 15185 10653 1 109.50000 418.400000
7065 15185 10653 1 109.50000 418.400000
4897 15186 9483 1 109.50000 418.400000
4897 15186 10604 1 109.50000 418.400000
4897 15186 10654 1 109.50000 418.400000
9483 15186 10604 1 109.50000 418.400000
9483 15186 10654 1 109.50000 418.400000
10604 15186 10654 1 109.50000 418.400000
2765 15187 10655 1 109.50000 418.400000
2765 15187 10656 1 109.50000 418.400000
2765 15187 10657 1 109.50000 418.400000
10655 15187 10656 1 109.50000 418.400000
10655 15187 10657 1 109.50000 418.400000
10656 15187 10657 1 109.50000 418.400000
5128 15188 7171 1 109.50000 418.400000
5128 15188 10538 1 109.50000 418.400000
5128 15188 10658 1 109.50000 418.400000
7171 15188 10538 1 109.50000 418.400000
7171 15188 10658 1 109.50000 418.400000
10538 15188 10658 1 109.50000 418.400000
97 15189 932 1 109.50000 418.400000
97 15189 5185 1 109.50000 418.400000
97 15189 8705 1 109.50000 418.400000
932 15189 5185 1 109.50000 418.400000
932 15189 8705 1 109.50000 418.400000
5185 15189 8705 1 109.50000 418.400000
5497 15190 9305 1 109.50000 418.400000
5497 15190 10035 1 109.50000 418.400000
5497 15190 10540 1 109.50000 418.400000
9305 15190 10035 1 109.50000 418.400000
9305 15190 10540 1 109.50000 418.400000
10035 15190 10540 1 109.50000 418.400000
2812 15191 7344 1 109.50000 418.400000
2812 15191 8592 1 109.50000 418.400000
2812 15191 10659 1 109.50000 418.400000
7344 15191 8592 1 109.50000 418.400000
7344 15191 10659 1 109.50000 418.400000
8592 15191 10659 1 109.50000 418.400000
907 15192 10014 1 109.50000 418.400000
907 15192 10660 1 109.50000 418.400000
907 15192 10661 1 109.50000 418.400000
10014 15192 10660 1 109.50000 418.400000
10014 15192 10661 1 109.50000 418.400000
10660 15192 10661 1 109.50000 418.400000
1029 15193 7636 1 109.50000 418.400000
1029 15193 10586 1 109.50000 418.400000
1029 15193 10662 1 109.50000 418.400000
7636 15193 10586 1 109.50000 418.400000
7636 15193 10662 1 109.50000 418.400000
10586 15193 10662 1 109.50000 418.400000
9028 15194 9867 1 109.50000 418.400000
9028 15194 10477 1 109.50000 418.400000
9028 15194 10663 1 109.50000 418.400000
9867 15194 10477 1 109.50000 418.400000
9867 15194 10663 1 109.50000 418.400000
10477 15194 10663 1 109.50000 418.400000
7630 15195 9929 1 109.50000 418.400000
7630 15195 10328 1 109.50000 418.400000
7630 15195 10664 1 109.50000 418.400000
9929 15195 10328 1 109.50000 418.400000
9929 15195 10664 1 109.50000 418.400000
10328 15195 10664 1 109.50000 418.400000
3258 15196 9883 1 109.50000 418.400000
3258 15196 10522 1 109.50000 418.400000
3258 15196 10665 1 109.50000 418.400000
9883 15196 10522 1 109.50000 418.400000
9883 15196 10665 1 109.50000 418.400000
10522 15196 10665 1 109.50000 418.400000
1130 15197 1483 1 109.50000 418.400000
1130 15197 7520 1 109.50000 418.400000
1130 15197 8072 1 109.50000 418.400000
1483 15197 7520 1 109.50000 418.400000
1483 15197 8072 1 109.50000 418.400000
7520 15197 8072 1 109.50000 418.400000
7926 15198 9773 1 109.50000 418.400000
7926 15198 10081 1 109.50000 418.400000
7926 15198 10666 1 109.50000 418.400000
9773 15198 10081 1 109.50000 418.400000
9773 15198 10666 1 109.50000 418.400000
10081 15198 10666 1 109.50000 418.400000
7713 15199 8019 1 109.50000 418.400000
7713 15199 9677 1 109.50000 418.400000
7713 15199 10648 1 109.50000 418.400000
8019 15199 9677 1 109.50000 418.400000
8019 15199 10648 1 109.50000 418.400000
9677 15199 10648 1 109.50000 418.400000
8641 15200 9275 1 109.50000 418.400000
8641 15200 9955 1 109.50000 418.400000
8641 15200 10667 1 109.50000 418.400000
9275 15200 9955 1 109.50000 418.400000
9275 15200 10667 1 109.50000 418.400000
9955 15200 10667 1 109.50000 418.400000
2130 15201 6375 1 109.50000 418.400000
2130 15201 6849 1 109.50000 418.400000
2130 15201 9810 1 109.50000 418.400000
6375 15201 6849 1 109.50000 418.400000
6375 15201 9810 1 109.50000 418.400000
6849 15201 9810 1 109.50000 418.400000
5060 15202 6049 1 109.50000 418.400000
5060 15202 7966 1 109.50000 418.400000
5060 15202 10668 1 109.50000 418.400000
6049 15202 7966 1 109.50000 418.400000
6049 15202 10668 1 109.50000 418.400000
7966 15202 10668 1 109.50000 418.400000
945 15203 5085 1 109.50000 418.400000
945 15203 5493 1 109.50000 418.400000
945 15203 8069 1 109.50000 418.400000
5085 15203 5493 1 109.50000 418.400000
5085 15203 8069 1 109.50000 418.400000
5493 15203 8069 1 109.50000 418.400000
9212 15204 10669 1 109.50000 418.400000
9212 15204 10670 1 109.50000 418.400000
9212 15204 10671 1 109.50000 418.400000
10669 15204 10670 1 109.50000 418.400000
10669 15204 10671 1 109.50000 418.400000
10670 15204 10671 1 109.50000 418.400000
7006 15205 9162 1 109.50000 418.400000
7006 15205 10062 1 109.50000 418.400000
7006 15205 10672 1 109.50000 418.400000
9162 15205 10062 1 109.50000 418.400000
9162 15205 10672 1 109.50000 418.400000
10062 15205 10672 1 109.50000 418.400000
1126 15206 5966 1 109.50000 418.400000
1126 15206 6603 1 109.50000 418.400000
1126 15206 7749 1 109.50000 418.400000
5966 15206 6603 1 109.50000 418.400000
5966 15206 7749 1 109.50000 418.400000
6603 15206 7749 1 109.50000 418.400000
34 15207 3780 1 109.50000 418.400000
34 15207 7434 1 109.50000 418.400000
34 15207 8508 1 109.50000 418.400000
3780 15207 7434 1 109.50000 418.400000
3780 15207 8508 1 109.50000 418.400000
7434 15207 8508 1 109.50000 418.400000
7377 15208 9590 1 109.50000 418.400000
7377 15208 9861 1 109.50000 418.400000
7377 15208 10336 1 109.50000 418.400000
9590 15208 9861 1 109.50000 418.400000
9590 15208 10336 1 109.50000 418.400000
9861 15208 10336 1 109.50000 418.400000
8836 15209 8892 1 109.50000 418.400000
8836 15209 9043 1 109.50000 418.400000
8836 15209 9738 1 109.50000 418.400000
8892 15209 9043 1 109.50000 418.400000
8892 15209 9738 1 109.50000 418.400000
9043 15209 9738 1 109.50000 418.400000
5612 15210 6818 1 109.50000 418.400000
5612 15210 7210 1 109.50000 418.400000
5612 15210 10673 1 109.50000 418.400000
6818 15210 7210 1 109.50000 418.400000
6818 15210 10673 1 109.50000 418.400000
7210 15210 10673 1 109.50000 418.400000
4608 15211 6361 1 109.50000 418.400000
4608 15211 10002 1 109.50000 418.400000
4608 15211 10674 1 109.50000 418.400000
6361 15211 10002 1 109.50000 418.400000
6361 15211 10674 1 109.50000 418.400000
10002 15211 10674 1 109.50000 418.400000
6454 15212 6667 1 109.50000 418.400000
6454 15212 9686 1 109.50000 418.400000
6454 15212 10675 1 109.50000 418.400000
6667 15212 9686 1 109.50000 418.400000
6667 15212 10675 1 109.50000 418.400000
9686 15212 10675 1 109.50000 418.400000
2795 15213 2797 1 109.50000 418.400000
2795 15213 4598 1 109.50000 418.400000
2795 15213 10476 1 109.50000 418.400000
2797 15213 4598 1 109.50000 418.400000
2797 15213 10476 1 109.50000 418.400000
4598 15213 10476 1 109.50000 418.400000
5426 15214 7429 1 109.50000 418.400000
5426 15214 10417 1 109.50000 418.400000
5426 15214 10677 1 109.50000 418.400000
7429 15214 10417 1 109.50000 418.400000
7429 15214 10677 1 109.50000 418.400000
10417 15214 10677 1 109.50000 418.400000
1591 15215 8771 1 109.50000 418.400000
1591 15215 9695 1 109.50000 418.400000
1591 15215 10668 1 109.50000 418.400000
8771 15215 9695 1 109.50000 418.400000
8771 15215 10668 1 109.50000 418.400000
9695 15215 10668 1 109.50000 418.400000
5641 15216 5809 1 109.50000 418.400000
5641 15216 6009 1 109.50000 418.400000
5641 15216 6478 1 109.50000 418.400000
5809 15216 6009 1 109.50000 418.400000
5809 15216 6478 1 109.50000 418.400000
6009 15216 6478 1 109.50000 418.400000
5335 15217 5337 1 109.50000 418.400000
5335 15217 5338 1 109.50000 418.400000
5335 15217 8456 1 109.50000 418.400000
5337 15217 5338 1 109.50000 418.400000
5337 15217 8456 1 109.50000 418.400000
5338 15217 8456 1 109.50000 418.400000
3685 15218 7577 1 109.50000 418.400000
3685 15218 10155 1 109.50000 418.400000
3685 15218 10682 1 109.50000 418.400000
7577 15218 10155 1 109.50000 418.400000
7577 15218 10682 1 109.50000 418.400000
10155 15218 10682 1 109.50000 418.400000
299 15219 8917 1 109.50000 418.400000
299 15219 10019 1 109.50000 418.400000
299 15219 10683 1 109.50000 418.400000
8917 15219 10019 1 109.50000 418.400000
8917 15219 10683 1 109.50000 418.400000
10019 15219 10683 1 109.50000 418.400000
6442 15220 7947 1 109.50000 418.400000
6442 15220 9482 1 109.50000 418.400000
6442 15220 10684 1 109.50000 418.400000
7947 15220 9482 1 109.50000 418.400000
7947 15220 10684 1 109.50000 418.400000
9482 15220 10684 1 109.50000 418.400000
479 15221 1904 1 109.50000 418.400000
479 15221 9878 1 109.50000 418.400000
479 15221 9926 1 109.50000 418.400000
1904 15221 9878 1 109.50000 418.400000
1904 15221 9926 1 109.50000 418.400000
9878 15221 9926 1 109.50000 418.400000
9732 15222 10685 1 109.50000 418.400000
9732 15222 10686 1 109.50000 418.400000
9732 15222 11190 1 109.50000 418.400000
10685 15222 10686 1 109.50000 418.400000
10685 15222 11190 1 109.50000 418.400000
10686 15222 11190 1 109.50000 418.400000
373 15223 5077 1 109.50000 418.400000
373 15223 10029 1 109.50000 418.400000
373 15223 10687 1 109.50000 418.400000
5077 15223 10029 1 109.50000 418.400000
5077 15223 10687 1 109.50000 418.400000
10029 15223 10687 1 109.50000 418.400000
3894 15224 10688 1 109.50000 418.400000
3894 15224 10689 1 109.50000 418.400000
3894 15224 10690 1 109.50000 418.400000
10688 15224 10689 1 109.50000 418.400000
10688 15224 10690 1 109.50000 418.400000
10689 15224 10690 1 109.50000 418.400000
8704 15225 9252 1 109.50000 418.400000
8704 15225 9446 1 109.50000 418.400000
8704 15225 10691 1 109.50000 418.400000
9252 15225 9446 1 109.50000 418.400000
9252 15225 10691 1 109.50000 418.400000
9446 15225 10691 1 109.50000 418.400000
1998 15226 9413 1 109.50000 418.400000
1998 15226 10692 1 109.50000 418.400000
1998 15226 10693 1 109.50000 418.400000
9413 15226 10692 1 109.50000 418.400000
9413 15226 10693 1 109.50000 418.400000
10692 15226 10693 1 109.50000 418.400000
1530 15227 3989 1 109.50000 418.400000
1530 15227 10123 1 109.50000 418.400000
1530 15227 10186 1 109.50000 418.400000
3989 15227 10123 1 109.50000 418.400000
3989 15227 10186 1 109.50000 418.400000
10123 15227 10186 1 109.50000 418.400000
4009 15228 5954 1 109.50000 418.400000
4009 15228 6897 1 109.50000 418.400000
4009 15228 10695 1 109.50000 418.400000
5954 15228 6897 1 109.50000 418.400000
5954 15228 10695 1 109.50000 418.400000
6897 15228 10695 1 109.50000 418.400000
1821 15229 8644 1 109.50000 418.400000
1821 15229 10384 1 109.50000 418.400000
1821 15229 10696 1 109.50000 418.400000
8644 15229 10384 1 109.50000 418.400000
8644 15229 10696 1 109.50000 418.400000
10384 15229 10696 1 109.50000 418.400000
4130 15230 5075 1 109.50000 418.400000
4130 15230 8245 1 109.50000 418.400000
4130 15230 10431 1 109.50000 418.400000
5075 15230 8245 1 109.50000 418.400000
5075 15230 10431 1 109.50000 418.400000
8245 15230 10431 1 109.50000 418.400000
4180 15231 4567 1 109.50000 418.400000
4180 15231 5341 1 109.50000 418.400000
4180 15231 7693 1 109.50000 418.400000
4567 15231 5341 1 109.50000 418.400000
4567 15231 7693 1 109.50000 418.400000
5341 15231 7693 1 109.50000 418.400000
4058 15232 4830 1 109.50000 418.400000
4058 15232 5883 1 109.50000 418.400000
4058 15232 8393 1 109.50000 418.400000
4830 15232 5883 1 109.50000 418.400000
4830 15232 8393 1 109.50000 418.400000
5883 15232 8393 1 109.50000 418.400000
961 15233 5685 1 109.50000 418.400000
961 15233 9567 1 109.50000 418.400000
961 15233 10697 1 109.50000 418.400000
5685 15233 9567 1 109.50000 418.400000
5685 15233 10697 1 109.50000 418.400000
9567 15233 10697 1 109.50000 418.400000
461 15234 6007 1 109.50000 418.400000
461 15234 10175 1 109.50000 418.400000
461 15234 10179 1 109.50000 418.400000
6007 15234 10175 1 109.50000 418.400000
6007 15234 10179 1 109.50000 418.400000
10175 15234 10179 1 109.50000 418.400000
3978 15235 6273 1 109.50000 418.400000
3978 15235 9414 1 109.50000 418.400000
3978 15235 9779 1 109.50000 418.400000
6273 15235 9414 1 109.50000 418.400000
6273 15235 9779 1 109.50000 418.400000
9414 15235 9779 1 109.50000 418.400000
5048 15236 7967 1 109.50000 418.400000
5048 15236 10699 1 109.50000 418.400000
5048 15236 10700 1 109.50000 418.400000
7967 15236 10699 1 109.50000 418.400000
7967 15236 10700 1 109.50000 418.400000
10699 15236 10700 1 109.50000 418.400000
2777 15237 5662 1 109.50000 418.400000
2777 15237 6484 1 109.50000 418.400000
2777 15237 10511 1 109.50000 418.400000
5662 15237 6484 1 109.50000 418.400000
5662 15237 10511 1 109.50000 418.400000
6484 15237 10511 1 109.50000 418.400000
1382 15238 10701 1 109.50000 418.400000
1382 15238 11175 1 109.50000 418.400000
1382 15238 11219 1 109.50000 418.400000
10701 15238 11175 1 109.50000 418.400000
10701 15238 11219 1 109.50000 418.400000
11175 15238 11219 1 109.50000 418.400000
5111 15239 7538 1 109.50000 418.400000
5111 15239 7593 1 109.50000 418.400000
5111 15239 9932 1 109.50000 418.400000
7538 15239 7593 1 109.50000 418.400000
7538 15239 9932 1 109.50000 418.400000
7593 15239 9932 1 109.50000 418.400000
6067 15240 9537 1 109.50000 418.400000
6067 15240 10246 1 109.50000 418.400000
6067 15240 10702 1 109.50000 418.400000
9537 15240 10246 1 109.50000 418.400000
9537 15240 10702 1 109.50000 418.400000
10246 15240 10702 1 109.50000 418.400000
1561 15241 3744 1 109.50000 418.400000
1561 15241 6300 1 109.50000 418.400000
1561 15241 7179 1 109.50000 418.400000
3744 15241 6300 1 109.50000 418.400000
3744 15241 7179 1 109.50000 418.400000
6300 15241 7179 1 109.50000 418.400000
1337 15242 1456 1 109.50000 418.400000
1337 15242 2776 1 109.50000 418.400000
1337 15242 10369 1 109.50000 418.400000
1456 15242 2776 1 109.50000 418.400000
1456 15242 10369 1 109.50000 418.400000
2776 15242 10369 1 109.50000 418.400000
2220 15243 4124 1 109.50000 418.400000
2220 15243 4951 1 109.50000 418.400000
2220 15243 10418 1 109.50000 418.400000
4124 15243 4951 1 109.50000 418.400000
4124 15243 10418 1 109.50000 418.400000
4951 15243 10418 1 109.50000 418.400000
622 15244 2310 1 109.50000 418.400000
622 15244 7324 1 109.50000 418.400000
622 15244 8256 1 109.50000 418.400000
2310 15244 7324 1 109.50000 418.400000
2310 15244 8256 1 109.50000 418.400000
7324 15244 8256 1 109.50000 418.400000
133 15245 1425 1 109.50000 418.400000
133 15245 1835 1 109.50000 418.400000
133 15245 6806 1 109.50000 418.400000
1425 15245 1835 1 109.50000 418.400000
1425 15245 6806 1 109.50000 418.400000
1835 15245 6806 1 109.50000 418.400000
464 15246 1264 1 109.50000 418.400000
464 15246 10659 1 109.50000 418.400000
464 15246 10703 1 109.50000 418.400000
1264 15246 10659 1 109.50000 418.400000
1264 15246 10703 1 109.50000 418.400000
10659 15246 10703 1 109.50000 418.400000
1296 15247 3079 1 109.50000 418.400000
1296 15247 9801 1 109.50000 418.400000
1296 15247 10704 1 109.50000 418.400000
3079 15247 9801 1 109.50000 418.400000
3079 15247 10704 1 109.50000 418.400000
9801 15247 10704 1 109.50000 418.400000
877 15248 5480 1 109.50000 418.400000
877 15248 9879 1 109.50000 418.400000
877 15248 10352 1 109.50000 418.400000
5480 15248 9879 1 109.50000 418.400000
5480 15248 10352 1 109.50000 418.400000
9879 15248 10352 1 109.50000 418.400000
4367 15249 6396 1 109.50000 418.400000
4367 15249 10705 1 109.50000 418.400000
4367 15249 11251 1 109.50000 418.400000
6396 15249 10705 1 109.50000 418.400000
6396 15249 11251 1 109.50000 418.400000
10705 15249 11251 1 109.50000 418.400000
2866 15250 4702 1 109.50000 418.400000
2866 15250 9378 1 109.50000 418.400000
2866 15250 10706 1 109.50000 418.400000
4702 15250 9378 1 109.50000 418.400000
4702 15250 10706 1 109.50000 418.400000
9378 15250 10706 1 109.50000 418.400000
4500 15251 4921 1 109.50000 418.400000
4500 15251 10707 1 109.50000 418.400000
4500 15251 10708 1 109.50000 418.400000
4921 15251 10707 1 109.50000 418.400000
4921 15251 10708 1 109.50000 418.400000
10707 15251 10708 1 109.50000 418.400000
4062 15252 7873 1 109.50000 418.400000
4062 15252 9633 1 109.50000 418.400000
4062 15252 10709 1 109.50000 418.400000
7873 15252 9633 1 109.50000 418.400000
7873 15252 10709 1 109.50000 418.400000
9633 15252 10709 1 109.50000 418.400000
7323 15253 7325 1 109.50000 418.400000
7323 15253 8600 1 109.50000 418.400000
7323 15253 10423 1 109.50000 418.400000
7325 15253 8600 1 109.50000 418.400000
7325 15253 10423 1 109.50000 418.400000
8600 15253 10423 1 109.50000 418.400000
1867 15254 9005 1 109.50000 418.400000
1867 15254 10710 1 109.50000 418.400000
1867 15254 10711 1 109.50000 418.400000
9005 15254 10710 1 109.50000 418.400000
9005 15254 10711 1 109.50000 418.400000
10710 15254 10711 1 109.50000 418.400000
3642 15255 5090 1 109.50000 418.400000
3642 15255 7849 1 109.50000 418.400000
3642 15255 8562 1 109.50000 418.400000
5090 15255 7849 1 109.50000 418.400000
5090 15255 8562 1 109.50000 418.400000
7849 15255 8562 1 109.50000 418.400000
2486 15256 4394 1 109.50000 418.400000
2486 15256 10712 1 109.50000 418.400000
2486 15256 10713 1 109.50000 418.400000
4394 15256 10712 1 109.50000 418.400000
4394 15256 10713 1 109.50000 418.400000
10712 15256 10713 1 109.50000 418.400000
6011 15257 8466 1 109.50000 418.400000
6011 15257 9937 1 109.50000 418.400000
6011 15257 10571 1 109.50000 418.400000
8466 15257 9937 1 109.50000 418.400000
8466 15257 10571 1 109.50000 418.400000
9937 15257 10571 1 109.50000 418.400000
173 15258 5231 1 109.50000 418.400000
173 15258 10714 1 109.50000 418.400000
173 15258 10715 1 109.50000 418.400000
5231 15258 10714 1 109.50000 418.400000
5231 15258 10715 1 109.50000 418.400000
10714 15258 10715 1 109.50000 418.400000
511 15259 3932 1 109.50000 418.400000
511 15259 5165 1 109.50000 418.400000
511 15259 8694 1 109.50000 418.400000
3932 15259 5165 1 109.50000 418.400000
3932 15259 8694 1 109.50000 418.400000
5165 15259 8694 1 109.50000 418.400000
6625 15260 6685 1 109.50000 418.400000
6625 15260 7404 1 109.50000 418.400000
6625 15260 10716 1 109.50000 418.400000
6685 15260 7404 1 109.50000 418.400000
6685 15260 10716 1 109.50000 418.400000
7404 15260 10716 1 109.50000 418.400000
2252 15261 7293 1 109.50000 418.400000
2252 15261 8188 1 109.50000 418.400000
2252 15261 10717 1 109.50000 418.400000
7293 15261 8188 1 109.50000 418.400000
7293 15261 10717 1 109.50000 418.400000
8188 15261 10717 1 109.50000 418.400000
3136 15262 3681 1 109.50000 418.400000
3136 15262 9453 1 109.50000 418.400000
3136 15262 10718 1 109.50000 418.400000
3681 15262 9453 1 109.50000 418.400000
3681 15262 10718 1 109.50000 418.400000
9453 15262 10718 1 109.50000 418.400000
5139 15263 8589 1 109.50000 418.400000
5139 15263 9245 1 109.50000 418.400000
5139 15263 9770 1 109.50000 418.400000
8589 15263 9245 1 109.50000 418.400000
8589 15263 9770 1 109.50000 418.400000
9245 15263 9770 1 109.50000 418.400000
5371 15264 5377 1 109.50000 418.400000
5371 15264 9881 1 109.50000 418.400000
5371 15264 10719 1 109.50000 418.400000
5377 15264 9881 1 109.50000 418.400000
5377 15264 10719 1 109.50000 418.400000
9881 15264 10719 1 109.50000 418.400000
8156 15265 9741 1 109.50000 418.400000
8156 15265 10664 1 109.50000 418.400000
8156 15265 10720 1 109.50000 418.400000
9741 15265 10664 1 109.50000 418.400000
9741 15265 10720 1 109.50000 418.400000
10664 15265 10720 1 109.50000 418.400000
2947 15266 7602 1 109.50000 418.400000
2947 15266 9799 1 109.50000 418.400000
2947 15266 10721 1 109.50000 418.400000
7602 15266 9799 1 109.50000 418.400000
7602 15266 10721 1 109.50000 418.400000
9799 15266 10721 1 109.50000 418.400000
8337 15267 8730 1 109.50000 418.400000
8337 15267 8781 1 109.50000 418.400000
8337 15267 9377 1 109.50000 418.400000
8730 15267 8781 1 109.50000 418.400000
8730 15267 9377 1 109.50000 418.400000
8781 15267 9377 1 109.50000 418.400000
4002 15268 5596 1 109.50000 418.400000
4002 15268 7560 1 109.50000 418.400000
4002 15268 8140 1 109.50000 418.400000
5596 15268 7560 1 109.50000 418.400000
5596 15268 8140 1 109.50000 418.400000
7560 15268 8140 1 109.50000 418.400000
3243 15269 3864 1 109.50000 418.400000
3243 15269 7987 1 109.50000 418.400000
3243 15269 10652 1 109.50000 418.400000
3864 15269 7987 1 109.50000 418.400000
3864 15269 10652 1 109.50000 418.400000
7987 15269 10652 1 109.50000 418.400000
4311 15270 6816 1 109.50000 418.400000
4311 15270 6898 1 109.50000 418.400000
4311 15270 9315 1 109.50000 418.400000
6816 15270 6898 1 109.50000 418.400000
6816 15270 9315 1 109.50000 418.400000
6898 15270 9315 1 109.50000 418.400000
1662 15271 5791 1 109.50000 418.400000
1662 15271 10722 1 109.50000 418.400000
1662 15271 10723 1 109.50000 418.400000
5791 15271 10722 1 109.50000 418.400000
5791 15271 10723 1 109.50000 418.400000
10722 15271 10723 1 109.50000 418.400000
530 15272 6422 1 109.50000 418.400000
530 15272 8152 1 109.50000 418.400000
530 15272 10325 1 109.50000 418.400000
6422 15272 8152 1 109.50000 418.400000
6422 15272 10325 1 109.50000 418.400000
8152 15272 10325 1 109.50000 418.400000
2424 15273 3591 1 109.50000 418.400000
2424 15273 4183 1 109.50000 418.400000
2424 15273 4957 1 109.50000 418.400000
3591 15273 4183 1 109.50000 418.400000
3591 15273 4957 1 109.50000 418.400000
4183 15273 4957 1 109.50000 418.400000
471 15274 5577 1 109.50000 418.400000
471 15274 5578 1 109.50000 418.400000
471 15274 9997 1 109.50000 418.400000
5577 15274 5578 1 109.50000 418.400000
5577 15274 9997 1 109.50000 418.400000
5578 15274 9997 1 109.50000 418.400000
1762 15275 8789 1 109.50000 418.400000
1762 15275 10724 1 109.50000 418.400000
1762 15275 10725 1 109.50000 418.400000
8789 15275 10724 1 109.50000 418.400000
8789 15275 10725 1 109.50000 418.400000
10724 15275 10725 1 109.50000 418.400000
1746 15276 3030 1 109.50000 418.400000
1746 15276 3887 1 109.50000 418.400000
1746 15276 5988 1 109.50000 418.400000
3030 15276 3887 1 109.50000 418.400000
3030 15276 5988 1 109.50000 418.400000
3887 15276 5988 1 109.50000 418.400000
7792 15277 8239 1 109.50000 418.400000
7792 15277 8548 1 109.50000 418.400000
7792 15277 10726 1 109.50000 418.400000
8239 15277 8548 1 109.50000 418.400000
8239 15277 10726 1 109.50000 418.400000
8548 15277 10726 1 109.50000 418.400000
5279 15278 7203 1 109.50000 418.400000
5279 15278 8584 1 109.50000 418.400000
5279 15278 10728 1 109.50000 418.400000
7203 15278 8584 1 109.50000 418.400000
7203 15278 10728 1 109.50000 418.400000
8584 15278 10728 1 109.50000 418.400000
4036 15279 4038 1 109.50000 418.400000
4036 15279 10218 1 109.50000 418.400000
4036 15279 10302 1 109.50000 418.400000
4038 15279 10218 1 109.50000 418.400000
4038 15279 10302 1 109.50000 418.400000
10218 15279 10302 1 109.50000 418.400000
5788 15280 5806 1 109.50000 418.400000
5788 15280 10322 1 109.50000 418.400000
5788 15280 10507 1 109.50000 418.400000
5806 15280 10322 1 109.50000 418.400000
5806 15280 10507 1 109.50000 418.400000
10322 15280 10507 1 109.50000 418.400000
5984 15281 8991 1 109.50000 418.400000
5984 15281 10412 1 109.50000 418.400000
5984 15281 10729 1 109.50000 418.400000
8991 15281 10412 1 109.50000 418.400000
8991 15281 10729 1 109.50000 418.400000
10412 15281 10729 1 109.50000 418.400000
4950 15282 6705 1 109.50000 418.400000
4950 15282 7879 1 109.50000 418.400000
4950 15282 8636 1 109.50000 418.400000
6705 15282 7879 1 109.50000 418.400000
6705 15282 8636 1 109.50000 418.400000
7879 15282 8636 1 109.50000 418.400000
6541 15283 8214 1 109.50000 418.400000
6541 15283 10654 1 109.50000 418.400000
6541 15283 10730 1 109.50000 418.400000
8214 15283 10654 1 109.50000 418.400000
8214 15283 10730 1 109.50000 418.400000
10654 15283 10730 1 109.50000 418.400000
3475 15284 5583 1 109.50000 418.400000
3475 15284 7482 1 109.50000 418.400000
3475 15284 10731 1 109.50000 418.400000
5583 15284 7482 1 109.50000 418.400000
5583 15284 10731 1 109.50000 418.400000
7482 15284 10731 1 109.50000 418.400000
9324 15285 10122 1 109.50000 418.400000
9324 15285 10341 1 109.50000 418.400000
9324 15285 10732 1 109.50000 418.400000
10122 15285 10341 1 109.50000 418.400000
10122 15285 10732 1 109.50000 418.400000
10341 15285 10732 1 109.50000 418.400000
4149 15286 9655 1 109.50000 418.400000
4149 15286 10733 1 109.50000 418.400000
4149 15286 10734 1 109.50000 418.400000
9655 15286 10733 1 109.50000 418.400000
9655 15286 10734 1 109.50000 418.400000
10733 15286 10734 1 109.50000 418.400000
1053 15287 8541 1 109.50000 418.400000
1053 15287 9785 1 109.50000 418.400000
1053 15287 10735 1 109.50000 418.400000
8541 15287 9785 1 109.50000 418.400000
8541 15287 10735 1 109.50000 418.400000
9785 15287 10735 1 109.50000 418.400000
3320 15288 9340 1 109.50000 418.400000
3320 15288 10126 1 109.50000 418.400000
3320 15288 10738 1 109.50000 418.400000
9340 15288 10126 1 109.50000 418.400000
9340 15288 10738 1 109.50000 418.400000
10126 15288 10738 1 109.50000 418.400000
1724 15289 3866 1 109.50000 418.400000
1724 15289 10132 1 109.50000 418.400000
1724 15289 10739 1 109.50000 418.400000
3866 15289 10132 1 109.50000 418.400000
3866 15289 10739 1 109.50000 418.400000
10132 15289 10739 1 109.50000 418.400000
2 15290 4597 1 109.50000 418.400000
2 15290 8039 1 109.50000 418.400000
2 15290 10396 1 109.50000 418.400000
4597 15290 8039 1 109.50000 418.400000
4597 15290 10396 1 109.50000 418.400000
8039 15290 10396 1 109.50000 418.400000
550 15291 6495 1 109.50000 418.400000
550 15291 7787 1 109.50000 418.400000
550 15291 8364 1 109.50000 418.400000
6495 15291 7787 1 109.50000 418.400000
6495 15291 8364 1 109.50000 418.400000
7787 15291 8364 1 109.50000 418.400000
733 15292 2930 1 109.50000 418.400000
733 15292 9882 1 109.50000 418.400000
733 15292 10740 1 109.50000 418.400000
2930 15292 9882 1 109.50000 418.400000
2930 15292 10740 1 109.50000 418.400000
9882 15292 10740 1 109.50000 418.400000
6681 15293 10247 1 109.50000 418.400000
6681 15293 10675 1 109.50000 418.400000
6681 15293 10741 1 109.50000 418.400000
10247 15293 10675 1 109.50000 418.400000
10247 15293 10741 1 109.50000 418.400000
10675 15293 10741 1 109.50000 418.400000
9210 15294 10742 1 109.50000 418.400000
9210 15294 10743 1 109.50000 418.400000
9210 15294 11235 1 109.50000 418.400000
10742 15294 10743 1 109.50000 418.400000
10742 15294 11235 1 109.50000 418.400000
10743 15294 11235 1 109.50000 418.400000
2197 15295 3782 1 109.50000 418.400000
2197 15295 6115 1 109.50000 418.400000
2197 15295 10598 1 109.50000 418.400000
3782 15295 6115 1 109.50000 418.400000
3782 15295 10598 1 109.50000 418.400000
6115 15295 10598 1 109.50000 418.400000
650 15296 10633 1 109.50000 418.400000
650 15296 10745 1 109.50000 418.400000
650 15296 10746 1 109.50000 418.400000
10633 15296 10745 1 109.50000 418.400000
10633 15296 10746 1 109.50000 418.400000
10745 15296 10746 1 109.50000 418.400000
1725 15297 3269 1 109.50000 418.400000
1725 15297 9301 1 109.50000 418.400000
1725 15297 10748 1 109.50000 418.400000
3269 15297 9301 1 109.50000 418.400000
3269 15297 10748 1 109.50000 418.400000
9301 15297 10748 1 109.50000 418.400000
3630 15298 7542 1 109.50000 418.400000
3630 15298 10749 1 109.50000 418.400000
3630 15298 10877 1 109.50000 418.400000
7542 15298 10749 1 109.50000 418.400000
7542 15298 10877 1 109.50000 418.400000
10749 15298 10877 1 109.50000 418.400000
4877 15299 7437 1 109.50000 418.400000
4877 15299 8264 1 109.50000 418.400000
4877 15299 10750 1 109.50000 418.400000
7437 15299 8264 1 109.50000 418.400000
7437 15299 10750 1 109.50000 418.400000
8264 15299 10750 1 109.50000 418.400000
270 15300 683 1 109.50000 418.400000
270 15300 9323 1 109.50000 418.400000
270 15300 9569 1 109.50000 418.400000
683 15300 9323 1 109.50000 418.400000
683 15300 9569 1 109.50000 418.400000
9323 15300 9569 1 109.50000 418.400000
305 15301 5740 1 109.50000 418.400000
305 15301 7026 1 109.50000 418.400000
305 15301 8762 1 109.50000 418.400000
5740 15301 7026 1 109.50000 418.400000
5740 15301 8762 1 109.50000 418.400000
7026 15301 8762 1 109.50000 418.400000
7900 15302 9173 1 109.50000 418.400000
7900 15302 9175 1 109.50000 418.400000
7900 15302 10751 1 109.50000 418.400000
9173 15302 9175 1 109.50000 418.400000
9173 15302 10751 1 109.50000 418.400000
9175 15302 10751 1 109.50000 418.400000
7366 15303 9038 1 109.50000 418.400000
7366 15303 9311 1 109.50000 418.400000
7366 15303 9849 1 109.50000 418.400000
9038 15303 9311 1 109.50000 418.400000
9038 15303 9849 1 109.50000 418.400000
9311 15303 9849 1 109.50000 418.400000
1119 15304 4042 1 109.50000 418.400000
1119 15304 6594 1 109.50000 418.400000
1119 15304 10634 1 109.50000 418.400000
4042 15304 6594 1 109.50000 418.400000
4042 15304 10634 1 109.50000 418.400000
6594 15304 10634 1 109.50000 418.400000
276 15305 3424 1 109.50000 418.400000
276 15305 9699 1 109.50000 418.400000
276 15305 10752 1 109.50000 418.400000
3424 15305 9699 1 109.50000 418.400000
3424 15305 10752 1 109.50000 418.400000
9699 15305 10752 1 109.50000 418.400000
496 15306 8710 1 109.50000 418.400000
496 15306 10753 1 109.50000 418.400000
496 15306 10754 1 109.50000 418.400000
8710 15306 10753 1 109.50000 418.400000
8710 15306 10754 1 109.50000 418.400000
10753 15306 10754 1 109.50000 418.400000
3036 15307 4719 1 109.50000 418.400000
3036 15307 8718 1 109.50000 418.400000
3036 15307 10616 1 109.50000 418.400000
4719 15307 8718 1 109.50000 418.400000
4719 15307 10616 1 109.50000 418.400000
8718 15307 10616 1 109.50000 418.400000
1385 15308 2138 1 109.50000 418.400000
1385 15308 7884 1 109.50000 418.400000
1385 15308 10050 1 109.50000 418.400000
2138 15308 7884 1 109.50000 418.400000
2138 15308 10050 1 109.50000 418.400000
7884 15308 10050 1 109.50000 418.400000
2283 15309 2886 1 109.50000 418.400000
2283 15309 6991 1 109.50000 418.400000
2283 15309 10666 1 109.50000 418.400000
2886 15309 6991 1 109.50000 418.400000
2886 15309 10666 1 109.50000 418.400000
6991 15309 10666 1 109.50000 418.400000
2838 15310 6053 1 109.50000 418.400000
2838 15310 9459 1 109.50000 418.400000
2838 15310 10618 1 109.50000 418.400000
6053 15310 9459 1 109.50000 418.400000
6053 15310 10618 1 109.50000 418.400000
9459 15310 10618 1 109.50000 418.400000
3460 15311 5860 1 109.50000 418.400000
3460 15311 5861 1 109.50000 418.400000
3460 15311 10111 1 109.50000 418.400000
5860 15311 5861 1 109.50000 418.400000
5860 15311 10111 1 109.50000 418.400000
5861 15311 10111 1 109.50000 418.400000
8437 15312 8439 1 109.50000 418.400000
8437 15312 9746 1 109.50000 418.400000
8437 15312 10755 1 109.50000 418.400000
8439 15312 9746 1 109.50000 418.400000
8439 15312 10755 1 109.50000 418.400000
9746 15312 10755 1 109.50000 418.400000
9499 15313 9658 1 109.50000 418.400000
9499 15313 9869 1 109.50000 418.400000
9499 15313 10154 1 109.50000 418.400000
9658 15313 9869 1 109.50000 418.400000
9658 15313 10154 1 109.50000 418.400000
9869 15313 10154 1 109.50000 418.400000
1669 15314 5286 1 109.50000 418.400000
1669 15314 8885 1 109.50000 418.400000
1669 15314 9197 1 109.50000 418.400000
5286 15314 8885 1 109.50000 418.400000
5286 15314 9197 1 109.50000 418.400000
8885 15314 9197 1 109.50000 418.400000
914 15315 2729 1 109.50000 418.400000
914 15315 9964 1 109.50000 418.400000
914 15315 10759 1 109.50000 418.400000
2729 15315 9964 1 109.50000 418.400000
2729 15315 10759 1 109.50000 418.400000
9964 15315 10759 1 109.50000 418.400000
1877 15316 3338 1 109.50000 418.400000
1877 15316 7979 1 109.50000 418.400000
1877 15316 11221 1 109.50000 418.400000
3338 15316 7979 1 109.50000 418.400000
3338 15316 11221 1 109.50000 418.400000
7979 15316 11221 1 109.50000 418.400000
3053 15317 4235 1 109.50000 418.400000
3053 15317 7821 1 109.50000 418.400000
3053 15317 8742 1 109.50000 418.400000
4235 15317 7821 1 109.50000 418.400000
4235 15317 8742 1 109.50000 418.400000
7821 15317 8742 1 109.50000 418.400000
1592 15318 6516 1 109.50000 418.400000
1592 15318 7964 1 109.50000 418.400000
1592 15318 10760 1 109.50000 418.400000
6516 15318 7964 1 109.50000 418.400000
6516 15318 10760 1 109.50000 418.400000
7964 15318 10760 1 109.50000 418.400000
7207 15319 8624 1 109.50000 418.400000
7207 15319 10750 1 109.50000 418.400000
7207 15319 10761 1 109.50000 418.400000
8624 15319 10750 1 109.50000 418.400000
8624 15319 10761 1 109.50000 418.400000
10750 15319 10761 1 109.50000 418.400000
3422 15320 3680 1 109.50000 418.400000
3422 15320 3835 1 109.50000 418.400000
3422 15320 10762 1 109.50000 418.400000
3680 15320 3835 1 109.50000 418.400000
3680 15320 10762 1 109.50000 418.400000
3835 15320 10762 1 109.50000 418.400000
595 15321 2959 1 109.50000 418.400000
595 15321 8969 1 109.50000 418.400000
595 15321 10665 1 109.50000 418.400000
2959 15321 8969 1 109.50000 418.400000
2959 15321 10665 1 109.50000 418.400000
8969 15321 10665 1 109.50000 418.400000
3154 15322 10621 1 109.50000 418.400000
3154 15322 10723 1 109.50000 418.400000
3154 15322 10763 1 109.50000 418.400000
10621 15322 10723 1 109.50000 418.400000
10621 15322 10763 1 109.50000 418.400000
10723 15322 10763 1 109.50000 418.400000
6343 15323 6344 1 109.50000 418.400000
6343 15323 10003 1 109.50000 418.400000
6343 15323 10326 1 109.50000 418.400000
6344 15323 10003 1 109.50000 418.400000
6344 15323 10326 1 109.50000 418.400000
10003 15323 10326 1 109.50000 418.400000
1250 15324 2005 1 109.50000 418.400000
1250 15324 5598 1 109.50000 418.400000
1250 15324 10362 1 109.50000 418.400000
2005 15324 5598 1 109.50000 418.400000
2005 15324 10362 1 109.50000 418.400000
5598 15324 10362 1 109.50000 418.400000
4078 15325 5616 1 109.50000 418.400000
4078 15325 9389 1 109.50000 418.400000
4078 15325 9512 1 109.50000 418.400000
5616 15325 9389 1 109.50000 418.400000
5616 15325 9512 1 109.50000 418.400000
9389 15325 9512 1 109.50000 418.400000
9003 15326 10764 1 109.50000 418.400000
9003 15326 10765 1 109.50000 418.400000
9003 15326 10766 1 109.50000 418.400000
10764 15326 10765 1 109.50000 418.400000
10764 15326 10766 1 109.50000 418.400000
10765 15326 10766 1 109.50000 418.400000
1281 15327 7499 1 109.50000 418.400000
1281 15327 7920 1 109.50000 418.400000
1281 15327 10767 1 109.50000 418.400000
7499 15327 7920 1 109.50000 418.400000
7499 15327 10767 1 109.50000 418.400000
7920 15327 10767 1 109.50000 418.400000
7383 15328 7709 1 109.50000 418.400000
7383 15328 10517 1 109.50000 418.400000
7383 15328 10768 1 109.50000 418.400000
7709 15328 10517 1 109.50000 418.400000
7709 15328 10768 1 109.50000 418.400000
10517 15328 10768 1 109.50000 418.400000
9729 15329 9730 1 109.50000 418.400000
9729 15329 10767 1 109.50000 418.400000
9729 15329 10769 1 109.50000 418.400000
9730 15329 10767 1 109.50000 418.400000
9730 15329 10769 1 109.50000 418.400000
10767 15329 10769 1 109.50000 418.400000
3770 15330 7017 1 109.50000 418.400000
3770 15330 7421 1 109.50000 418.400000
3770 15330 8811 1 109.50000 418.400000
7017 15330 7421 1 109.50000 418.400000
7017 15330 8811 1 109.50000 418.400000
7421 15330 8811 1 109.50000 418.400000
1220 15331 1857 1 109.50000 418.400000
1220 15331 5896 1 109.50000 418.400000
1220 15331 10770 1 109.50000 418.400000
1857 15331 5896 1 109.50000 418.400000
1857 15331 10770 1 109.50000 418.400000
5896 15331 10770 1 109.50000 418.400000
1678 15332 5509 1 109.50000 418.400000
1678 15332 9739 1 109.50000 418.400000
1678 15332 10771 1 109.50000 418.400000
5509 15332 9739 1 109.50000 418.400000
5509 15332 10771 1 109.50000 418.400000
9739 15332 10771 1 109.50000 418.400000
5455 15333 6847 1 109.50000 418.400000
5455 15333 10108 1 109.50000 418.400000
5455 15333 10772 1 109.50000 418.400000
6847 15333 10108 1 109.50000 418.400000
6847 15333 10772 1 109.50000 418.400000
10108 15333 10772 1 109.50000 418.400000
2312 15334 6954 1 109.50000 418.400000
2312 15334 9607 1 109.50000 418.400000
2312 15334 10773 1 109.50000 418.400000
6954 15334 9607 1 109.50000 418.400000
6954 15334 10773 1 109.50000 418.400000
9607 15334 10773 1 109.50000 418.400000
6951 15335 7734 1 109.50000 418.400000
6951 15335 8512 1 109.50000 418.400000
6951 15335 10774 1 109.50000 418.400000
7734 15335 8512 1 109.50000 418.400000
7734 15335 10774 1 109.50000 418.400000
8512 15335 10774 1 109.50000 418.400000
2825 15336 5457 1 109.50000 418.400000
2825 15336 6729 1 109.50000 418.400000
2825 15336 10775 1 109.50000 418.400000
5457 15336 6729 1 109.50000 418.400000
5457 15336 10775 1 109.50000 418.400000
6729 15336 10775 1 109.50000 418.400000
8259 15337 10690 1 109.50000 418.400000
8259 15337 10776 1 109.50000 418.400000
8259 15337 10777 1 109.50000 418.400000
10690 15337 10776 1 109.50000 418.400000
10690 15337 10777 1 109.50000 418.400000
10776 15337 10777 1 109.50000 418.400000
3585 15338 4202 1 109.50000 418.400000
3585 15338 5899 1 109.50000 418.400000
3585 15338 9087 1 109.50000 418.400000
4202 15338 5899 1 109.50000 418.400000
4202 15338 9087 1 109.50000 418.400000
5899 15338 9087 1 109.50000 418.400000
1160 15339 1377 1 109.50000 418.400000
1160 15339 8800 1 109.50000 418.400000
1160 15339 10778 1 109.50000 418.400000
1377 15339 8800 1 109.50000 418.400000
1377 15339 10778 1 109.50000 418.400000
8800 15339 10778 1 109.50000 418.400000
2509 15340 5471 1 109.50000 418.400000
2509 15340 10779 1 109.50000 418.400000
2509 15340 10780 1 109.50000 418.400000
5471 15340 10779 1 109.50000 418.400000
5471 15340 10780 1 109.50000 418.400000
10779 15340 10780 1 109.50000 418.400000
2427 15341 5908 1 109.50000 418.400000
2427 15341 6220 1 109.50000 418.400000
2427 15341 10765 1 109.50000 418.400000
5908 15341 6220 1 109.50000 418.400000
5908 15341 10765 1 109.50000 418.400000
6220 15341 10765 1 109.50000 418.400000
2571 15342 6785 1 109.50000 418.400000
2571 15342 6787 1 109.50000 418.400000
2571 15342 7329 1 109.50000 418.400000
6785 15342 6787 1 109.50000 418.400000
6785 15342 7329 1 109.50000 418.400000
6787 15342 7329 1 109.50000 418.400000
2924 15343 6549 1 109.50000 418.400000
2924 15343 7187 1 109.50000 418.400000
2924 15343 9112 1 109.50000 418.400000
6549 15343 7187 1 109.50000 418.400000
6549 15343 9112 1 109.50000 418.400000
7187 15343 9112 1 109.50000 418.400000
2065 15344 4665 1 109.50000 418.400000
2065 15344 9752 1 109.50000 418.400000
2065 15344 10781 1 109.50000 418.400000
4665 15344 9752 1 109.50000 418.400000
4665 15344 10781 1 109.50000 418.400000
9752 15344 10781 1 109.50000 418.400000
1238 15345 3147 1 109.50000 418.400000
1238 15345 7851 1 109.50000 418.400000
1238 15345 7852 1 109.50000 418.400000
3147 15345 7851 1 109.50000 418.400000
3147 15345 7852 1 109.50000 418.400000
7851 15345 7852 1 109.50000 418.400000
853 15346 1645 1 109.50000 418.400000
853 15346 4565 1 109.50000 418.400000
853 15346 11200 1 109.50000 418.400000
1645 15346 4565 1 109.50000 418.400000
1645 15346 11200 1 109.50000 418.400000
4565 15346 11200 1 109.50000 418.400000
3451 15347 3942 1 109.50000 418.400000
3451 15347 6513 1 109.50000 418.400000
3451 15347 8305 1 109.50000 418.400000
3942 15347 6513 1 109.50000 418.400000
3942 15347 8305 1 109.50000 418.400000
6513 15347 8305 1 109.50000 418.400000
1667 15348 10327 1 109.50000 418.400000
1667 15348 10782 1 109.50000 418.400000
1667 15348 10783 1 109.50000 418.400000
10327 15348 10782 1 109.50000 418.400000
10327 15348 10783 1 109.50000 418.400000
10782 15348 10783 1 109.50000 418.400000
2476 15349 8099 1 109.50000 418.400000
2476 15349 9987 1 109.50000 418.400000
2476 15349 10584 1 109.50000 418.400000
8099 15349 9987 1 109.50000 418.400000
8099 15349 10584 1 109.50000 418.400000
9987 15349 10584 1 109.50000 418.400000
1292 15350 5036 1 109.50000 418.400000
1292 15350 8590 1 109.50000 418.400000
1292 15350 9953 1 109.50000 418.400000
5036 15350 8590 1 109.50000 418.400000
5036 15350 9953 1 109.50000 418.400000
8590 15350 9953 1 109.50000 418.400000
3127 15351 9527 1 109.50000 418.400000
3127 15351 9949 1 109.50000 418.400000
3127 15351 10784 1 109.50000 418.400000
9527 15351 9949 1 109.50000 418.400000
9527 15351 10784 1 109.50000 418.400000
9949 15351 10784 1 109.50000 418.400000
6269 15352 7016 1 109.50000 418.400000
6269 15352 8651 1 109.50000 418.400000
6269 15352 8832 1 109.50000 418.400000
7016 15352 8651 1 109.50000 418.400000
7016 15352 8832 1 109.50000 418.400000
8651 15352 8832 1 109.50000 418.400000
48 15353 3530 1 109.50000 418.400000
48 15353 7660 1 109.50000 418.400000
48 15353 10474 1 109.50000 418.400000
3530 15353 7660 1 109.50000 418.400000
3530 15353 10474 1 109.50000 418.400000
7660 15353 10474 1 109.50000 418.400000
5145 15354 10752 1 109.50000 418.400000
5145 15354 10785 1 109.50000 418.400000
5145 15354 10786 1 109.50000 418.400000
10752 15354 10785 1 109.50000 418.400000
10752 15354 10786 1 109.50000 418.400000
10785 15354 10786 1 109.50000 418.400000
405 15355 9936 1 109.50000 418.400000
405 15355 10224 1 109.50000 418.400000
405 15355 10578 1 109.50000 418.400000
9936 15355 10224 1 109.50000 418.400000
9936 15355 10578 1 109.50000 418.400000
10224 15355 10578 1 109.50000 418.400000
5342 15356 9497 1 109.50000 418.400000
5342 15356 10782 1 109.50000 418.400000
5342 15356 10787 1 109.50000 418.400000
9497 15356 10782 1 109.50000 418.400000
9497 15356 10787 1 109.50000 418.400000
10782 15356 10787 1 109.50000 418.400000
220 15357 3423 1 109.50000 418.400000
220 15357 8220 1 109.50000 418.400000
220 15357 9328 1 109.50000 418.400000
3423 15357 8220 1 109.50000 418.400000
3423 15357 9328 1 109.50000 418.400000
8220 15357 9328 1 109.50000 418.400000
2558 15358 8416 1 109.50000 418.400000
2558 15358 8968 1 109.50000 418.400000
2558 15358 10740 1 109.50000 418.400000
8416 15358 8968 1 109.50000 418.400000
8416 15358 10740 1 109.50000 418.400000
8968 15358 10740 1 109.50000 418.400000
896 15359 4550 1 109.50000 418.400000
896 15359 7220 1 109.50000 418.400000
896 15359 11243 1 109.50000 418.400000
4550 15359 7220 1 109.50000 418.400000
4550 15359 11243 1 109.50000 418.400000
7220 15359 11243 1 109.50000 418.400000
6473 15360 9153 1 109.50000 418.400000
6473 15360 10099 1 109.50000 418.400000
6473 15360 10788 1 109.50000 418.400000
9153 15360 10099 1 109.50000 418.400000
9153 15360 10788 1 109.50000 418.400000
10099 15360 10788 1 109.50000 418.400000
6859 15361 7753 1 109.50000 418.400000
6859 15361 9027 1 109.50000 418.400000
6859 15361 9613 1 109.50000 418.400000
7753 15361 9027 1 109.50000 418.400000
7753 15361 9613 1 109.50000 418.400000
9027 15361 9613 1 109.50000 418.400000
4518 15362 8633 1 109.50000 418.400000
4518 15362 10783 1 109.50000 418.400000
4518 15362 10789 1 109.50000 418.400000
8633 15362 10783 1 109.50000 418.400000
8633 15362 10789 1 109.50000 418.400000
10783 15362 10789 1 109.50000 418.400000
3869 15363 8207 1 109.50000 418.400000
3869 15363 9952 1 109.50000 418.400000
3869 15363 10791 1 109.50000 418.400000
8207 15363 9952 1 109.50000 418.400000
8207 15363 10791 1 109.50000 418.400000
9952 15363 10791 1 109.50000 418.400000
1589 15364 4739 1 109.50000 418.400000
1589 15364 10792 1 109.50000 418.400000
1589 15364 10793 1 109.50000 418.400000
4739 15364 10792 1 109.50000 418.400000
4739 15364 10793 1 109.50000 418.400000
10792 15364 10793 1 109.50000 418.400000
9555 15365 9944 1 109.50000 418.400000
9555 15365 10237 1 109.50000 418.400000
9555 15365 10794 1 109.50000 418.400000
9944 15365 10237 1 109.50000 418.400000
9944 15365 10794 1 109.50000 418.400000
10237 15365 10794 1 109.50000 418.400000
1013 15366 7856 1 109.50000 418.400000
1013 15366 10399 1 109.50000 418.400000
1013 15366 10796 1 109.50000 418.400000
7856 15366 10399 1 109.50000 418.400000
7856 15366 10796 1 109.50000 418.400000
10399 15366 10796 1 109.50000 418.400000
7811 15367 9697 1 109.50000 418.400000
7811 15367 10797 1 109.50000 418.400000
7811 15367 10798 1 109.50000 418.400000
9697 15367 10797 1 109.50000 418.400000
9697 15367 10798 1 109.50000 418.400000
10797 15367 10798 1 109.50000 418.400000
4063 15368 8707 1 109.50000 418.400000
4063 15368 10461 1 109.50000 418.400000
4063 15368 10549 1 109.50000 418.400000
8707 15368 10461 1 109.50000 418.400000
8707 15368 10549 1 109.50000 418.400000
10461 15368 10549 1 109.50000 418.400000
188 15369 9410 1 109.50000 418.400000
188 15369 9711 1 109.50000 418.400000
188 15369 10799 1 109.50000 418.400000
9410 15369 9711 1 109.50000 418.400000
9410 15369 10799 1 109.50000 418.400000
9711 15369 10799 1 109.50000 418.400000
6900 15370 7459 1 109.50000 418.400000
6900 15370 7668 1 109.50000 418.400000
6900 15370 8008 1 109.50000 418.400000
7459 15370 7668 1 109.50000 418.400000
7459 15370 8008 1 109.50000 418.400000
7668 15370 8008 1 109.50000 418.400000
2784 15371 2905 1 109.50000 418.400000
2784 15371 6807 1 109.50000 418.400000
2784 15371 8728 1 109.50000 418.400000
2905 15371 6807 1 109.50000 418.400000
2905 15371 8728 1 109.50000 418.400000
6807 15371 8728 1 109.50000 418.400000
8223 15372 9616 1 109.50000 418.400000
8223 15372 10800 1 109.50000 418.400000
8223 15372 10801 1 109.50000 418.400000
9616 15372 10800 1 109.50000 418.400000
9616 15372 10801 1 109.50000 418.400000
10800 15372 10801 1 109.50000 418.400000
1438 15373 9146 1 109.50000 418.400000
1438 15373 9147 1 109.50000 418.400000
1438 15373 9148 1 109.50000 418.400000
9146 15373 9147 1 109.50000 418.400000
9146 15373 9148 1 109.50000 418.400000
9147 15373 9148 1 109.50000 418.400000
6879 15374 7011 1 109.50000 418.400000
6879 15374 7744 1 109.50000 418.400000
6879 15374 10547 1 109.50000 418.400000
7011 15374 7744 1 109.50000 418.400000
7011 15374 10547 1 109.50000 418.400000
7744 15374 10547 1 109.50000 418.400000
737 15375 6181 1 109.50000 418.400000
737 15375 6248 1 109.50000 418.400000
737 15375 7720 1 109.50000 418.400000
6181 15375 6248 1 109.50000 418.400000
6181 15375 7720 1 109.50000 418.400000
6248 15375 7720 1 109.50000 418.400000
631 15376 1244 1 109.50000 418.400000
631 15376 8077 1 109.50000 418.400000
631 15376 8982 1 109.50000 418.400000
1244 15376 8077 1 109.50000 418.400000
1244 15376 8982 1 109.50000 418.400000
8077 15376 8982 1 109.50000 418.400000
332 15377 1050 1 109.50000 418.400000
332 15377 8787 1 109.50000 418.400000
332 15377 10803 1 109.50000 418.400000
1050 15377 8787 1 109.50000 418.400000
1050 15377 10803 1 109.50000 418.400000
8787 15377 10803 1 109.50000 418.400000
5343 15378 6942 1 109.50000 418.400000
5343 15378 7676 1 109.50000 418.400000
5343 15378 10805 1 109.50000 418.400000
6942 15378 7676 1 109.50000 418.400000
6942 15378 10805 1 109.50000 418.400000
7676 15378 10805 1 109.50000 418.400000
5565 15379 6070 1 109.50000 418.400000
5565 15379 6548 1 109.50000 418.400000
5565 15379 8222 1 109.50000 418.400000
6070 15379 6548 1 109.50000 418.400000
6070 15379 8222 1 109.50000 418.400000
6548 15379 8222 1 109.50000 418.400000
1694 15380 3638 1 109.50000 418.400000
1694 15380 9215 1 109.50000 418.400000
1694 15380 10806 1 109.50000 418.400000
3638 15380 9215 1 109.50000 418.400000
3638 15380 10806 1 109.50000 418.400000
9215 15380 10806 1 109.50000 418.400000
4129 15381 4944 1 109.50000 418.400000
4129 15381 8746 1 109.50000 418.400000
4129 15381 10605 1 109.50000 418.400000
4944 15381 8746 1 109.50000 418.400000
4944 15381 10605 1 109.50000 418.400000
8746 15381 10605 1 109.50000 418.400000
2227 15382 2916 1 109.50000 418.400000
2227 15382 9156 1 109.50000 418.400000
2227 15382 9326 1 109.50000 418.400000
2916 15382 9156 1 109.50000 418.400000
2916 15382 9326 1 109.50000 418.400000
9156 15382 9326 1 109.50000 418.400000
2537 15383 5170 1 109.50000 418.400000
2537 15383 10625 1 109.50000 418.400000
2537 15383 10807 1 109.50000 418.400000
5170 15383 10625 1 109.50000 418.400000
5170 15383 10807 1 109.50000 418.400000
10625 15383 10807 1 109.50000 418.400000
8174 15384 9670 1 109.50000 418.400000
8174 15384 10400 1 109.50000 418.400000
8174 15384 10808 1 109.50000 418.400000
9670 15384 10400 1 109.50000 418.400000
9670 15384 10808 1 109.50000 418.400000
10400 15384 10808 1 109.50000 418.400000
8107 15385 10521 1 109.50000 418.400000
8107 15385 10809 1 109.50000 418.400000
8107 15385 10810 1 109.50000 418.400000
10521 15385 10809 1 109.50000 418.400000
10521 15385 10810 1 109.50000 418.400000
10809 15385 10810 1 109.50000 418.400000
1894 15386 2390 1 109.50000 418.400000
1894 15386 6700 1 109.50000 418.400000
1894 15386 8457 1 109.50000 418.400000
2390 15386 6700 1 109.50000 418.400000
2390 15386 8457 1 109.50000 418.400000
6700 15386 8457 1 109.50000 418.400000
3622 15387 3662 1 109.50000 418.400000
3622 15387 6627 1 109.50000 418.400000
3622 15387 9615 1 109.50000 418.400000
3662 15387 6627 1 109.50000 418.400000
3662 15387 9615 1 109.50000 418.400000
6627 15387 9615 1 109.50000 418.400000
988 15388 6614 1 109.50000 418.400000
988 15388 9531 1 109.50000 418.400000
988 15388 10811 1 109.50000 418.400000
6614 15388 9531 1 109.50000 418.400000
6614 15388 10811 1 109.50000 418.400000
9531 15388 10811 1 109.50000 418.400000
6042 15389 6356 1 109.50000 418.400000
6042 15389 9834 1 109.50000 418.400000
6042 15389 10189 1 109.50000 418.400000
6356 15389 9834 1 109.50000 418.400000
6356 15389 10189 1 109.50000 418.400000
9834 15389 10189 1 109.50000 418.400000
5379 15390 9715 1 109.50000 418.400000
5379 15390 10448 1 109.50000 418.400000
5379 15390 10812 1 109.50000 418.400000
9715 15390 10448 1 109.50000 418.400000
9715 15390 10812 1 109.50000 418.400000
10448 15390 10812 1 109.50000 418.400000
3581 15391 5810 1 109.50000 418.400000
3581 15391 9248 1 109.50000 418.400000
3581 15391 9416 1 109.50000 418.400000
5810 15391 9248 1 109.50000 418.400000
5810 15391 9416 1 109.50000 418.400000
9248 15391 9416 1 109.50000 418.400000
8138 15392 8514 1 109.50000 418.400000
8138 15392 9860 1 109.50000 418.400000
8138 15392 10324 1 109.50000 418.400000
8514 15392 9860 1 109.50000 418.400000
8514 15392 10324 1 109.50000 418.400000
9860 15392 10324 1 109.50000 418.400000
6826 15393 7396 1 109.50000 418.400000
6826 15393 10105 1 109.50000 418.400000
6826 15393 10813 1 109.50000 418.400000
7396 15393 10105 1 109.50000 418.400000
7396 15393 10813 1 109.50000 418.400000
10105 15393 10813 1 109.50000 418.400000
3689 15394 6670 1 109.50000 418.400000
3689 15394 9731 1 109.50000 418.400000
3689 15394 10200 1 109.50000 418.400000
6670 15394 9731 1 109.50000 418.400000
6670 15394 10200 1 109.50000 418.400000
9731 15394 10200 1 109.50000 418.400000
7387 15395 8750 1 109.50000 418.400000
7387 15395 10541 1 109.50000 418.400000
7387 15395 10725 1 109.50000 418.400000
8750 15395 10541 1 109.50000 418.400000
8750 15395 10725 1 109.50000 418.400000
10541 15395 10725 1 109.50000 418.400000
7 15396 7221 1 109.50000 418.400000
7 15396 10404 1 109.50000 418.400000
7 15396 10667 1 109.50000 418.400000
7221 15396 10404 1 109.50000 418.400000
7221 15396 10667 1 109.50000 418.400000
10404 15396 10667 1 109.50000 418.400000
802 15397 4611 1 109.50000 418.400000
802 15397 8038 1 109.50000 418.400000
802 15397 10472 1 109.50000 418.400000
4611 15397 8038 1 109.50000 418.400000
4611 15397 10472 1 109.50000 418.400000
8038 15397 10472 1 109.50000 418.400000
1122 15398 6507 1 109.50000 418.400000
1122 15398 10259 1 109.50000 418.400000
1122 15398 10815 1 109.50000 418.400000
6507 15398 10259 1 109.50000 418.400000
6507 15398 10815 1 109.50000 418.400000
10259 15398 10815 1 109.50000 418.400000
2016 15399 4308 1 109.50000 418.400000
2016 15399 9290 1 109.50000 418.400000
2016 15399 10816 1 109.50000 418.400000
4308 15399 9290 1 109.50000 418.400000
4308 15399 10816 1 109.50000 418.400000
9290 15399 10816 1 109.50000 418.400000
1349 15400 3639 1 109.50000 418.400000
1349 15400 5176 1 109.50000 418.400000
1349 15400 9973 1 109.50000 418.400000
3639 15400 5176 1 109.50000 418.400000
3639 15400 9973 1 109.50000 418.400000
5176 15400 9973 1 109.50000 418.400000
6223 15401 8596 1 109.50000 418.400000
6223 15401 10817 1 109.50000 418.400000
6223 15401 10818 1 109.50000 418.400000
8596 15401 10817 1 109.50000 418.400000
8596 15401 10818 1 109.50000 418.400000
10817 15401 10818 1 109.50000 418.400000
1895 15402 9507 1 109.50000 418.400000
1895 15402 9984 1 109.50000 418.400000
1895 15402 10161 1 109.50000 418.400000
9507 15402 9984 1 109.50000 418.400000
9507 15402 10161 1 109.50000 418.400000
9984 15402 10161 1 109.50000 418.400000
2754 15403 5618 1 109.50000 418.400000
2754 15403 8708 1 109.50000 418.400000
2754 15403 10819 1 109.50000 418.400000
5618 15403 8708 1 109.50000 418.400000
5618 15403 10819 1 109.50000 418.400000
8708 15403 10819 1 109.50000 418.400000
6745 15404 9154 1 109.50000 418.400000
6745 15404 9391 1 109.50000 418.400000
6745 15404 10100 1 109.50000 418.400000
9154 15404 9391 1 109.50000 418.400000
9154 15404 10100 1 109.50000 418.400000
9391 15404 10100 1 109.50000 418.400000
540 15405 835 1 109.50000 418.400000
540 15405 10231 1 109.50000 418.400000
540 15405 10820 1 109.50000 418.400000
835 15405 10231 1 109.50000 418.400000
835 15405 10820 1 109.50000 418.400000
10231 15405 10820 1 109.50000 418.400000
211 15406 2609 1 109.50000 418.400000
211 15406 7355 1 109.50000 418.400000
211 15406 9361 1 109.50000 418.400000
2609 15406 7355 1 109.50000 418.400000
2609 15406 9361 1 109.50000 418.400000
7355 15406 9361 1 109.50000 418.400000
1612 15407 1838 1 109.50000 418.400000
1612 15407 4372 1 109.50000 418.400000
1612 15407 6162 1 109.50000 418.400000
1838 15407 4372 1 109.50000 418.400000
1838 15407 6162 1 109.50000 418.400000
4372 15407 6162 1 109.50000 418.400000
532 15408 5600 1 109.50000 418.400000
532 15408 6344 1 109.50000 418.400000
532 15408 6360 1 109.50000 418.400000
5600 15408 6344 1 109.50000 418.400000
5600 15408 6360 1 109.50000 418.400000
6344 15408 6360 1 109.50000 418.400000
9549 15409 10821 1 109.50000 418.400000
9549 15409 10822 1 109.50000 418.400000
9549 15409 11206 1 109.50000 418.400000
10821 15409 10822 1 109.50000 418.400000
10821 15409 11206 1 109.50000 418.400000
10822 15409 11206 1 109.50000 418.400000
9306 15410 9594 1 109.50000 418.400000
9306 15410 10823 1 109.50000 418.400000
9306 15410 10824 1 109.50000 418.400000
9594 15410 10823 1 109.50000 418.400000
9594 15410 10824 1 109.50000 418.400000
10823 15410 10824 1 109.50000 418.400000
6272 15411 9914 1 109.50000 418.400000
6272 15411 10479 1 109.50000 418.400000
6272 15411 10825 1 109.50000 418.400000
9914 15411 10479 1 109.50000 418.400000
9914 15411 10825 1 109.50000 418.400000
10479 15411 10825 1 109.50000 418.400000
2635 15412 3456 1 109.50000 418.400000
2635 15412 9961 1 109.50000 418.400000
2635 15412 10826 1 109.50000 418.400000
3456 15412 9961 1 109.50000 418.400000
3456 15412 10826 1 109.50000 418.400000
9961 15412 10826 1 109.50000 418.400000
3276 15413 6908 1 109.50000 418.400000
3276 15413 8179 1 109.50000 418.400000
3276 15413 10546 1 109.50000 418.400000
6908 15413 8179 1 109.50000 418.400000
6908 15413 10546 1 109.50000 418.400000
8179 15413 10546 1 109.50000 418.400000
4781 15414 4783 1 109.50000 418.400000
4781 15414 9045 1 109.50000 418.400000
4781 15414 10720 1 109.50000 418.400000
4783 15414 9045 1 109.50000 418.400000
4783 15414 10720 1 109.50000 418.400000
9045 15414 10720 1 109.50000 418.400000
6605 15415 7983 1 109.50000 418.400000
6605 15415 9637 1 109.50000 418.400000
6605 15415 10499 1 109.50000 418.400000
7983 15415 9637 1 109.50000 418.400000
7983 15415 10499 1 109.50000 418.400000
9637 15415 10499 1 109.50000 418.400000
1411 15416 4673 1 109.50000 418.400000
1411 15416 6860 1 109.50000 418.400000
1411 15416 8689 1 109.50000 418.400000
4673 15416 6860 1 109.50000 418.400000
4673 15416 8689 1 109.50000 418.400000
6860 15416 8689 1 109.50000 418.400000
5252 15417 6953 1 109.50000 418.400000
5252 15417 7774 1 109.50000 418.400000
5252 15417 7776 1 109.50000 418.400000
6953 15417 7774 1 109.50000 418.400000
6953 15417 7776 1 109.50000 418.400000
7774 15417 7776 1 109.50000 418.400000
5153 15418 9356 1 109.50000 418.400000
5153 15418 10268 1 109.50000 418.400000
5153 15418 10588 1 109.50000 418.400000
9356 15418 10268 1 109.50000 418.400000
9356 15418 10588 1 109.50000 418.400000
10268 15418 10588 1 109.50000 418.400000
1023 15419 4198 1 109.50000 418.400000
1023 15419 5365 1 109.50000 418.400000
1023 15419 6261 1 109.50000 418.400000
4198 15419 5365 1 109.50000 418.400000
4198 15419 6261 1 109.50000 418.400000
5365 15419 6261 1 109.50000 418.400000
874 15420 7003 1 109.50000 418.400000
874 15420 7121 1 109.50000 418.400000
874 15420 7760 1 109.50000 418.400000
7003 15420 7121 1 109.50000 418.400000
7003 15420 7760 1 109.50000 418.400000
7121 15420 7760 1 109.50000 418.400000
4450 15421 9493 1 109.50000 418.400000
4450 15421 9517 1 109.50000 418.400000
4450 15421 10829 1 109.50000 418.400000
9493 15421 9517 1 109.50000 418.400000
9493 15421 10829 1 109.50000 418.400000
9517 15421 10829 1 109.50000 418.400000
2516 15422 2744 1 109.50000 418.400000
2516 15422 9283 1 109.50000 418.400000
2516 15422 9795 1 109.50000 418.400000
2744 15422 9283 1 109.50000 418.400000
2744 15422 9795 1 109.50000 418.400000
9283 15422 9795 1 109.50000 418.400000
2949 15423 5368 1 109.50000 418.400000
2949 15423 9710 1 109.50000 418.400000
2949 15423 9728 1 109.50000 418.400000
5368 15423 9710 1 109.50000 418.400000
5368 15423 9728 1 109.50000 418.400000
9710 15423 9728 1 109.50000 418.400000
4573 15424 5767 1 109.50000 418.400000
4573 15424 7701 1 109.50000 418.400000
4573 15424 10830 1 109.50000 418.400000
5767 15424 7701 1 109.50000 418.400000
5767 15424 10830 1 109.50000 418.400000
7701 15424 10830 1 109.50000 418.400000
2992 15425 2993 1 109.50000 418.400000
2992 15425 2994 1 109.50000 418.400000
2992 15425 2995 1 109.50000 418.400000
2993 15425 2994 1 109.50000 418.400000
2993 15425 2995 1 109.50000 418.400000
2994 15425 2995 1 109.50000 418.400000
1060 15426 1062 1 109.50000 418.400000
1060 15426 9158 1 109.50000 418.400000
1060 15426 9327 1 109.50000 418.400000
1062 15426 9158 1 109.50000 418.400000
1062 15426 9327 1 109.50000 418.400000
9158 15426 9327 1 109.50000 418.400000
9258 15427 9632 1 109.50000 418.400000
9258 15427 9633 1 109.50000 418.400000
9258 15427 10831 1 109.50000 418.400000
9632 15427 9633 1 109.50000 418.400000
9632 15427 10831 1 109.50000 418.400000
9633 15427 10831 1 109.50000 418.400000
613 15428 9277 1 109.50000 418.400000
613 15428 10785 1 109.50000 418.400000
613 15428 10832 1 109.50000 418.400000
9277 15428 10785 1 109.50000 418.400000
9277 15428 10832 1 109.50000 418.400000
10785 15428 10832 1 109.50000 418.400000
3624 15429 3625 1 109.50000 418.400000
3624 15429 5320 1 109.50000 418.400000
3624 15429 7063 1 109.50000 418.400000
3625 15429 5320 1 109.50000 418.400000
3625 15429 7063 1 109.50000 418.400000
5320 15429 7063 1 109.50000 418.400000
1713 15430 9018 1 109.50000 418.400000
1713 15430 10491 1 109.50000 418.400000
1713 15430 10833 1 109.50000 418.400000
9018 15430 10491 1 109.50000 418.400000
9018 15430 10833 1 109.50000 418.400000
10491 15430 10833 1 109.50000 418.400000
2779 15431 6399 1 109.50000 418.400000
2779 15431 9815 1 109.50000 418.400000
2779 15431 10392 1 109.50000 418.400000
6399 15431 9815 1 109.50000 418.400000
6399 15431 10392 1 109.50000 418.400000
9815 15431 10392 1 109.50000 418.400000
6455 15432 8047 1 109.50000 418.400000
6455 15432 10834 1 109.50000 418.400000
6455 15432 10835 1 109.50000 418.400000
8047 15432 10834 1 109.50000 418.400000
8047 15432 10835 1 109.50000 418.400000
10834 15432 10835 1 109.50000 418.400000
2702 15433 6941 1 109.50000 418.400000
2702 15433 8650 1 109.50000 418.400000
2702 15433 10787 1 109.50000 418.400000
6941 15433 8650 1 109.50000 418.400000
6941 15433 10787 1 109.50000 418.400000
8650 15433 10787 1 109.50000 418.400000
2688 15434 4833 1 109.50000 418.400000
2688 15434 10836 1 109.50000 418.400000
2688 15434 10837 1 109.50000 418.400000
4833 15434 10836 1 109.50000 418.400000
4833 15434 10837 1 109.50000 418.400000
10836 15434 10837 1 109.50000 418.400000
7289 15435 7291 1 109.50000 418.400000
7289 15435 9510 1 109.50000 418.400000
7289 15435 10838 1 109.50000 418.400000
7291 15435 9510 1 109.50000 418.400000
7291 15435 10838 1 109.50000 418.400000
9510 15435 10838 1 109.50000 418.400000
2649 15436 8048 1 109.50000 418.400000
2649 15436 8580 1 109.50000 418.400000
2649 15436 9272 1 109.50000 418.400000
8048 15436 8580 1 109.50000 418.400000
8048 15436 9272 1 109.50000 418.400000
8580 15436 9272 1 109.50000 418.400000
4612 15437 7935 1 109.50000 418.400000
4612 15437 10842 1 109.50000 418.400000
4612 15437 10843 1 109.50000 418.400000
7935 15437 10842 1 109.50000 418.400000
7935 15437 10843 1 109.50000 418.400000
10842 15437 10843 1 109.50000 418.400000
4527 15438 8423 1 109.50000 418.400000
4527 15438 10339 1 109.50000 418.400000
4527 15438 10340 1 109.50000 418.400000
8423 15438 10339 1 109.50000 418.400000
8423 15438 10340 1 109.50000 418.400000
10339 15438 10340 1 109.50000 418.400000
5082 15439 6147 1 109.50000 418.400000
5082 15439 9168 1 109.50000 418.400000
5082 15439 10701 1 109.50000 418.400000
6147 15439 9168 1 109.50000 418.400000
6147 15439 10701 1 109.50000 418.400000
9168 15439 10701 1 109.50000 418.400000
2548 15440 8998 1 109.50000 418.400000
2548 15440 9337 1 109.50000 418.400000
2548 15440 10844 1 109.50000 418.400000
8998 15440 9337 1 109.50000 418.400000
8998 15440 10844 1 109.50000 418.400000
9337 15440 10844 1 109.50000 418.400000
1573 15441 9266 1 109.50000 418.400000
1573 15441 10845 1 109.50000 418.400000
1573 15441 10846 1 109.50000 418.400000
9266 15441 10845 1 109.50000 418.400000
9266 15441 10846 1 109.50000 418.400000
10845 15441 10846 1 109.50000 418.400000
1942 15442 6428 1 109.50000 418.400000
1942 15442 9150 1 109.50000 418.400000
1942 15442 10847 1 109.50000 418.400000
6428 15442 9150 1 109.50000 418.400000
6428 15442 10847 1 109.50000 418.400000
9150 15442 10847 1 109.50000 418.400000
1973 15443 1974 1 109.50000 418.400000
1973 15443 10405 1 109.50000 418.400000
1973 15443 10773 1 109.50000 418.400000
1974 15443 10405 1 109.50000 418.400000
1974 15443 10773 1 109.50000 418.400000
10405 15443 10773 1 109.50000 418.400000
6475 15444 6744 1 109.50000 418.400000
6475 15444 10710 1 109.50000 418.400000
6475 15444 10848 1 109.50000 418.400000
6744 15444 10710 1 109.50000 418.400000
6744 15444 10848 1 109.50000 418.400000
10710 15444 10848 1 109.50000 418.400000
3254 15445 5660 1 109.50000 418.400000
3254 15445 6674 1 109.50000 418.400000
3254 15445 10731 1 109.50000 418.400000
5660 15445 6674 1 109.50000 418.400000
5660 15445 10731 1 109.50000 418.400000
6674 15445 10731 1 109.50000 418.400000
434 15446 8884 1 109.50000 418.400000
434 15446 9954 1 109.50000 418.400000
434 15446 10564 1 109.50000 418.400000
8884 15446 9954 1 109.50000 418.400000
8884 15446 10564 1 109.50000 418.400000
9954 15446 10564 1 109.50000 418.400000
76 15447 2970 1 109.50000 418.400000
76 15447 5209 1 109.50000 418.400000
76 15447 10849 1 109.50000 418.400000
2970 15447 5209 1 109.50000 418.400000
2970 15447 10849 1 109.50000 418.400000
5209 15447 10849 1 109.50000 418.400000
7024 15448 7076 1 109.50000 418.400000
7024 15448 9866 1 109.50000 418.400000
7024 15448 10267 1 109.50000 418.400000
7076 15448 9866 1 109.50000 418.400000
7076 15448 10267 1 109.50000 418.400000
9866 15448 10267 1 109.50000 418.400000
632 15449 3895 1 109.50000 418.400000
632 15449 10192 1 109.50000 418.400000
632 15449 10839 1 109.50000 418.400000
3895 15449 10192 1 109.50000 418.400000
3895 15449 10839 1 109.50000 418.400000
10192 15449 10839 1 109.50000 418.400000
89 15450 929 1 109.50000 418.400000
89 15450 4657 1 109.50000 418.400000
89 15450 10708 1 109.50000 418.400000
929 15450 4657 1 109.50000 418.400000
929 15450 10708 1 109.50000 418.400000
4657 15450 10708 1 109.50000 418.400000
3050 15451 5924 1 109.50000 418.400000
3050 15451 7157 1 109.50000 418.400000
3050 15451 9365 1 109.50000 418.400000
5924 15451 7157 1 109.50000 418.400000
5924 15451 9365 1 109.50000 418.400000
7157 15451 9365 1 109.50000 418.400000
764 15452 2808 1 109.50000 418.400000
764 15452 10850 1 109.50000 418.400000
764 15452 10851 1 109.50000 418.400000
2808 15452 10850 1 109.50000 418.400000
2808 15452 10851 1 109.50000 418.400000
10850 15452 10851 1 109.50000 418.400000
444 15453 1081 1 109.50000 418.400000
444 15453 6772 1 109.50000 418.400000
444 15453 10470 1 109.50000 418.400000
1081 15453 6772 1 109.50000 418.400000
1081 15453 10470 1 109.50000 418.400000
6772 15453 10470 1 109.50000 418.400000
3287 15454 6885 1 109.50000 418.400000
3287 15454 9951 1 109.50000 418.400000
3287 15454 10178 1 109.50000 418.400000
6885 15454 9951 1 109.50000 418.400000
6885 15454 10178 1 109.50000 418.400000
9951 15454 10178 1 109.50000 418.400000
1754 15455 3370 1 109.50000 418.400000
1754 15455 4968 1 109.50000 418.400000
1754 15455 9407 1 109.50000 418.400000
3370 15455 4968 1 109.50000 418.400000
3370 15455 9407 1 109.50000 418.400000
4968 15455 9407 1 109.50000 418.400000
55 15456 8096 1 109.50000 418.400000
55 15456 10658 1 109.50000 418.400000
55 15456 10852 1 109.50000 418.400000
8096 15456 10658 1 109.50000 418.400000
8096 15456 10852 1 109.50000 418.400000
10658 15456 10852 1 109.50000 418.400000
7997 15457 8736 1 109.50000 418.400000
7997 15457 10066 1 109.50000 418.400000
7997 15457 10853 1 109.50000 418.400000
8736 15457 10066 1 109.50000 418.400000
8736 15457 10853 1 109.50000 418.400000
10066 15457 10853 1 109.50000 418.400000
9560 15458 9685 1 109.50000 418.400000
9560 15458 10854 1 109.50000 418.400000
9560 15458 10901 1 109.50000 418.400000
9685 15458 10854 1 109.50000 418.400000
9685 15458 10901 1 109.50000 418.400000
10854 15458 10901 1 109.50000 418.400000
4159 15459 5857 1 109.50000 418.400000
4159 15459 6855 1 109.50000 418.400000
4159 15459 10855 1 109.50000 418.400000
5857 15459 6855 1 109.50000 418.400000
5857 15459 10855 1 109.50000 418.400000
6855 15459 10855 1 109.50000 418.400000
4066 15460 4067 1 109.50000 418.400000
4066 15460 8150 1 109.50000 418.400000
4066 15460 8440 1 109.50000 418.400000
4067 15460 8150 1 109.50000 418.400000
4067 15460 8440 1 109.50000 418.400000
8150 15460 8440 1 109.50000 418.400000
4379 15461 8713 1 109.50000 418.400000
4379 15461 10856 1 109.50000 418.400000
4379 15461 10857 1 109.50000 418.400000
8713 15461 10856 1 109.50000 418.400000
8713 15461 10857 1 109.50000 418.400000
10856 15461 10857 1 109.50000 418.400000
665 15462 666 1 109.50000 418.400000
665 15462 5447 1 109.50000 418.400000
665 15462 10859 1 109.50000 418.400000
666 15462 5447 1 109.50000 418.400000
666 15462 10859 1 109.50000 418.400000
5447 15462 10859 1 109.50000 418.400000
10300 15463 10302 1 109.50000 418.400000
10300 15463 10860 1 109.50000 418.400000
10300 15463 10861 1 109.50000 418.400000
10302 15463 10860 1 109.50000 418.400000
10302 15463 10861 1 109.50000 418.400000
10860 15463 10861 1 109.50000 418.400000
319 15464 839 1 109.50000 418.400000
319 15464 7000 1 109.50000 418.400000
319 15464 10145 1 109.50000 418.400000
839 15464 7000 1 109.50000 418.400000
839 15464 10145 1 109.50000 418.400000
7000 15464 10145 1 109.50000 418.400000
6391 15465 7276 1 109.50000 418.400000
6391 15465 9687 1 109.50000 418.400000
6391 15465 10859 1 109.50000 418.400000
7276 15465 9687 1 109.50000 418.400000
7276 15465 10859 1 109.50000 418.400000
9687 15465 10859 1 109.50000 418.400000
2689 15466 7068 1 109.50000 418.400000
2689 15466 8826 1 109.50000 418.400000
2689 15466 10862 1 109.50000 418.400000
7068 15466 8826 1 109.50000 418.400000
7068 15466 10862 1 109.50000 418.400000
8826 15466 10862 1 109.50000 418.400000
2682 15467 2683 1 109.50000 418.400000
2682 15467 3534 1 109.50000 418.400000
2682 15467 4979 1 109.50000 418.400000
2683 15467 3534 1 109.50000 418.400000
2683 15467 4979 1 109.50000 418.400000
3534 15467 4979 1 109.50000 418.400000
554 15468 2181 1 109.50000 418.400000
554 15468 6780 1 109.50000 418.400000
554 15468 10863 1 109.50000 418.400000
2181 15468 6780 1 109.50000 418.400000
2181 15468 10863 1 109.50000 418.400000
6780 15468 10863 1 109.50000 418.400000
3 15469 2221 1 109.50000 418.400000
3 15469 2491 1 109.50000 418.400000
3 15469 5872 1 109.50000 418.400000
2221 15469 2491 1 109.50000 418.400000
2221 15469 5872 1 109.50000 418.400000
2491 15469 5872 1 109.50000 418.400000
1389 15470 2641 1 109.50000 418.400000
1389 15470 7408 1 109.50000 418.400000
1389 15470 7410 1 109.50000 418.400000
2641 15470 7408 1 109.50000 418.400000
2641 15470 7410 1 109.50000 418.400000
7408 15470 7410 1 109.50000 418.400000
8449 15471 8450 1 109.50000 418.400000
8449 15471 9655 1 109.50000 418.400000
8449 15471 9656 1 109.50000 418.400000
8450 15471 9655 1 109.50000 418.400000
8450 15471 9656 1 109.50000 418.400000
9655 15471 9656 1 109.50000 418.400000
6684 15472 8316 1 109.50000 418.400000
6684 15472 10209 1 109.50000 418.400000
6684 15472 10865 1 109.50000 418.400000
8316 15472 10209 1 109.50000 418.400000
8316 15472 10865 1 109.50000 418.400000
10209 15472 10865 1 109.50000 418.400000
5516 15473 6417 1 109.50000 418.400000
5516 15473 6418 1 109.50000 418.400000
5516 15473 6795 1 109.50000 418.400000
6417 15473 6418 1 109.50000 418.400000
6417 15473 6795 1 109.50000 418.400000
6418 15473 6795 1 109.50000 418.400000
6045 15474 6856 1 109.50000 418.400000
6045 15474 7588 1 109.50000 418.400000
6045 15474 8284 1 109.50000 418.400000
6856 15474 7588 1 109.50000 418.400000
6856 15474 8284 1 109.50000 418.400000
7588 15474 8284 1 109.50000 418.400000
9876 15475 9977 1 109.50000 418.400000
9876 15475 10349 1 109.50000 418.400000
9876 15475 10870 1 109.50000 418.400000
9977 15475 10349 1 109.50000 418.400000
9977 15475 10870 1 109.50000 418.400000
10349 15475 10870 1 109.50000 418.400000
8597 15476 8932 1 109.50000 418.400000
8597 15476 9397 1 109.50000 418.400000
8597 15476 9472 1 109.50000 418.400000
8932 15476 9397 1 109.50000 418.400000
8932 15476 9472 1 109.50000 418.400000
9397 15476 9472 1 109.50000 418.400000
7461 15477 7814 1 109.50000 418.400000
7461 15477 10212 1 109.50000 418.400000
7461 15477 10753 1 109.50000 418.400000
7814 15477 10212 1 109.50000 418.400000
7814 15477 10753 1 109.50000 418.400000
10212 15477 10753 1 109.50000 418.400000
2751 15478 6833 1 109.50000 418.400000
2751 15478 10381 1 109.50000 418.400000
2751 15478 10539 1 109.50000 418.400000
6833 15478 10381 1 109.50000 418.400000
6833 15478 10539 1 109.50000 418.400000
10381 15478 10539 1 109.50000 418.400000
2636 15479 4620 1 109.50000 418.400000
2636 15479 5686 1 109.50000 418.400000
2636 15479 10771 1 109.50000 418.400000
4620 15479 5686 1 109.50000 418.400000
4620 15479 10771 1 109.50000 418.400000
5686 15479 10771 1 109.50000 418.400000
2507 15480 4879 1 109.50000 418.400000
2507 15480 9747 1 109.50000 418.400000
2507 15480 10768 1 109.50000 418.400000
4879 15480 9747 1 109.50000 418.400000
4879 15480 10768 1 109.50000 418.400000
9747 15480 10768 1 109.50000 418.400000
7644 15481 7645 1 109.50000 418.400000
7644 15481 10534 1 109.50000 418.400000
7644 15481 10871 1 109.50000 418.400000
7645 15481 10534 1 109.50000 418.400000
7645 15481 10871 1 109.50000 418.400000
10534 15481 10871 1 109.50000 418.400000
8723 15482 9467 1 109.50000 418.400000
8723 15482 10774 1 109.50000 418.400000
8723 15482 10875 1 109.50000 418.400000
9467 15482 10774 1 109.50000 418.400000
9467 15482 10875 1 109.50000 418.400000
10774 15482 10875 1 109.50000 418.400000
5409 15483 6266 1 109.50000 418.400000
5409 15483 10241 1 109.50000 418.400000
5409 15483 10876 1 109.50000 418.400000
6266 15483 10241 1 109.50000 418.400000
6266 15483 10876 1 109.50000 418.400000
10241 15483 10876 1 109.50000 418.400000
3211 15484 10459 1 109.50000 418.400000
3211 15484 10698 1 109.50000 418.400000
3211 15484 10749 1 109.50000 418.400000
10459 15484 10698 1 109.50000 418.400000
10459 15484 10749 1 109.50000 418.400000
10698 15484 10749 1 109.50000 418.400000
3099 15485 7458 1 109.50000 418.400000
3099 15485 8901 1 109.50000 418.400000
3099 15485 9649 1 109.50000 418.400000
7458 15485 8901 1 109.50000 418.400000
7458 15485 9649 1 109.50000 418.400000
8901 15485 9649 1 109.50000 418.400000
6632 15486 8328 1 109.50000 418.400000
6632 15486 8761 1 109.50000 418.400000
6632 15486 10828 1 109.50000 418.400000
8328 15486 8761 1 109.50000 418.400000
8328 15486 10828 1 109.50000 418.400000
8761 15486 10828 1 109.50000 418.400000
688 15487 6412 1 109.50000 418.400000
688 15487 6413 1 109.50000 418.400000
688 15487 6414 1 109.50000 418.400000
6412 15487 6413 1 109.50000 418.400000
6412 15487 6414 1 109.50000 418.400000
6413 15487 6414 1 109.50000 418.400000
112 15488 2871 1 109.50000 418.400000
112 15488 10878 1 109.50000 418.400000
112 15488 10879 1 109.50000 418.400000
2871 15488 10878 1 109.50000 418.400000
2871 15488 10879 1 109.50000 418.400000
10878 15488 10879 1 109.50000 418.400000
3158 15489 7183 1 109.50000 418.400000
3158 15489 10184 1 109.50000 418.400000
3158 15489 10880 1 109.50000 418.400000
7183 15489 10184 1 109.50000 418.400000
7183 15489 10880 1 109.50000 418.400000
10184 15489 10880 1 109.50000 418.400000
1498 15490 4158 1 109.50000 418.400000
1498 15490 10060 1 109.50000 418.400000
1498 15490 10881 1 109.50000 418.400000
4158 15490 10060 1 109.50000 418.400000
4158 15490 10881 1 109.50000 418.400000
10060 15490 10881 1 109.50000 418.400000
6411 15491 8063 1 109.50000 418.400000
6411 15491 8344 1 109.50000 418.400000
6411 15491 8830 1 109.50000 418.400000
8063 15491 8344 1 109.50000 418.400000
8063 15491 8830 1 109.50000 418.400000
8344 15491 8830 1 109.50000 418.400000
536 15492 3497 1 109.50000 418.400000
536 15492 7195 1 109.50000 418.400000
536 15492 8572 1 109.50000 418.400000
3497 15492 7195 1 109.50000 418.400000
3497 15492 8572 1 109.50000 418.400000
7195 15492 8572 1 109.50000 418.400000
2196 15493 2308 1 109.50000 418.400000
2196 15493 4635 1 109.50000 418.400000
2196 15493 10882 1 109.50000 418.400000
2308 15493 4635 1 109.50000 418.400000
2308 15493 10882 1 109.50000 418.400000
4635 15493 10882 1 109.50000 418.400000
8679 15494 8680 1 109.50000 418.400000
8679 15494 10883 1 109.50000 418.400000
8679 15494 10885 1 109.50000 418.400000
8680 15494 10883 1 109.50000 418.400000
8680 15494 10885 1 109.50000 418.400000
10883 15494 10885 1 109.50000 418.400000
240 15495 6907 1 109.50000 418.400000
240 15495 10718 1 109.50000 418.400000
240 15495 10886 1 109.50000 418.400000
6907 15495 10718 1 109.50000 418.400000
6907 15495 10886 1 109.50000 418.400000
10718 15495 10886 1 109.50000 418.400000
4333 15496 6286 1 109.50000 418.400000
4333 15496 7937 1 109.50000 418.400000
4333 15496 10575 1 109.50000 418.400000
6286 15496 7937 1 109.50000 418.400000
6286 15496 10575 1 109.50000 418.400000
7937 15496 10575 1 109.50000 418.400000
1674 15497 6466 1 109.50000 418.400000
1674 15497 8379 1 109.50000 418.400000
1674 15497 10390 1 109.50000 418.400000
6466 15497 8379 1 109.50000 418.400000
6466 15497 10390 1 109.50000 418.400000
8379 15497 10390 1 109.50000 418.400000
2407 15498 6119 1 109.50000 418.400000
2407 15498 9161 1 109.50000 418.400000
2407 15498 10464 1 109.50000 418.400000
6119 15498 9161 1 109.50000 418.400000
6119 15498 10464 1 109.50000 418.400000
9161 15498 10464 1 109.50000 418.400000
7127 15499 9505 1 109.50000 418.400000
7127 15499 9506 1 109.50000 418.400000
7127 15499 11156 1 109.50000 418.400000
9505 15499 9506 1 109.50000 418.400000
9505 15499 11156 1 109.50000 418.400000
9506 15499 11156 1 109.50000 418.400000
681 15500 1046 1 109.50000 418.400000
681 15500 7032 1 109.50000 418.400000
681 15500 9532 1 109.50000 418.400000
1046 15500 7032 1 109.50000 418.400000
1046 15500 9532 1 109.50000 418.400000
7032 15500 9532 1 109.50000 418.400000
2152 15501 5190 1 109.50000 418.400000
2152 15501 8272 1 109.50000 418.400000
2152 15501 10882 1 109.50000 418.400000
5190 15501 8272 1 109.50000 418.400000
5190 15501 10882 1 109.50000 418.400000
8272 15501 10882 1 109.50000 418.400000
8032 15502 9905 1 109.50000 418.400000
8032 15502 10644 1 109.50000 418.400000
8032 15502 10888 1 109.50000 418.400000
9905 15502 10644 1 109.50000 418.400000
9905 15502 10888 1 109.50000 418.400000
10644 15502 10888 1 109.50000 418.400000
970 15503 7607 1 109.50000 418.400000
970 15503 10240 1 109.50000 418.400000
970 15503 10889 1 109.50000 418.400000
7607 15503 10240 1 109.50000 418.400000
7607 15503 10889 1 109.50000 418.400000
10240 15503 10889 1 109.50000 418.400000
8887 15504 9233 1 109.50000 418.400000
8887 15504 10089 1 109.50000 418.400000
8887 15504 10890 1 109.50000 418.400000
9233 15504 10089 1 109.50000 418.400000
9233 15504 10890 1 109.50000 418.400000
10089 15504 10890 1 109.50000 418.400000
4694 15505 5411 1 109.50000 418.400000
4694 15505 7096 1 109.50000 418.400000
4694 15505 9232 1 109.50000 418.400000
5411 15505 7096 1 109.50000 418.400000
5411 15505 9232 1 109.50000 418.400000
7096 15505 9232 1 109.50000 418.400000
9719 15506 10892 1 109.50000 418.400000
9719 15506 10893 1 109.50000 418.400000
9719 15506 10894 1 109.50000 418.400000
10892 15506 10893 1 109.50000 418.400000
10892 15506 10894 1 109.50000 418.400000
10893 15506 10894 1 109.50000 418.400000
5738 15507 7691 1 109.50000 418.400000
5738 15507 10772 1 109.50000 418.400000
5738 15507 10895 1 109.50000 418.400000
7691 15507 10772 1 109.50000 418.400000
7691 15507 10895 1 109.50000 418.400000
10772 15507 10895 1 109.50000 418.400000
6296 15508 7705 1 109.50000 418.400000
6296 15508 7886 1 109.50000 418.400000
6296 15508 10321 1 109.50000 418.400000
7705 15508 7886 1 109.50000 418.400000
7705 15508 10321 1 109.50000 418.400000
7886 15508 10321 1 109.50000 418.400000
3462 15509 9082 1 109.50000 418.400000
3462 15509 9083 1 109.50000 418.400000
3462 15509 9911 1 109.50000 418.400000
9082 15509 9083 1 109.50000 418.400000
9082 15509 9911 1 109.50000 418.400000
9083 15509 9911 1 109.50000 418.400000
1137 15510 2092 1 109.50000 418.400000
1137 15510 9448 1 109.50000 418.400000
1137 15510 10896 1 109.50000 418.400000
2092 15510 9448 1 109.50000 418.400000
2092 15510 10896 1 109.50000 418.400000
9448 15510 10896 1 109.50000 418.400000
810 15511 811 1 109.50000 418.400000
810 15511 812 1 109.50000 418.400000
810 15511 813 1 109.50000 418.400000
811 15511 812 1 109.50000 418.400000
811 15511 813 1 109.50000 418.400000
812 15511 813 1 109.50000 418.400000
2927 15512 3343 1 109.50000 418.400000
2927 15512 4403 1 109.50000 418.400000
2927 15512 10416 1 109.50000 418.400000
3343 15512 4403 1 109.50000 418.400000
3343 15512 10416 1 109.50000 418.400000
4403 15512 10416 1 109.50000 418.400000
43 15513 2074 1 109.50000 418.400000
43 15513 8661 1 109.50000 418.400000
43 15513 9958 1 109.50000 418.400000
2074 15513 8661 1 109.50000 418.400000
2074 15513 9958 1 109.50000 418.400000
8661 15513 9958 1 109.50000 418.400000
1630 15514 5698 1 109.50000 418.400000
1630 15514 9236 1 109.50000 418.400000
1630 15514 10897 1 109.50000 418.400000
5698 15514 9236 1 109.50000 418.400000
5698 15514 10897 1 109.50000 418.400000
9236 15514 10897 1 109.50000 418.400000
4826 15515 9994 1 109.50000 418.400000
4826 15515 9995 1 109.50000 418.400000
4826 15515 10868 1 109.50000 418.400000
9994 15515 9995 1 109.50000 418.400000
9994 15515 10868 1 109.50000 418.400000
9995 15515 10868 1 109.50000 418.400000
6581 15516 10870 1 109.50000 418.400000
6581 15516 10898 1 109.50000 418.400000
6581 15516 10899 1 109.50000 418.400000
10870 15516 10898 1 109.50000 418.400000
10870 15516 10899 1 109.50000 418.400000
10898 15516 10899 1 109.50000 418.400000
1031 15517 8769 1 109.50000 418.400000
1031 15517 10865 1 109.50000 418.400000
1031 15517 10900 1 109.50000 418.400000
8769 15517 10865 1 109.50000 418.400000
8769 15517 10900 1 109.50000 418.400000
10865 15517 10900 1 109.50000 418.400000
8012 15518 9286 1 109.50000 418.400000
8012 15518 9606 1 109.50000 418.400000
8012 15518 9724 1 109.50000 418.400000
9286 15518 9606 1 109.50000 418.400000
9286 15518 9724 1 109.50000 418.400000
9606 15518 9724 1 109.50000 418.400000
1738 15519 1740 1 109.50000 418.400000
1738 15519 7174 1 109.50000 418.400000
1738 15519 10854 1 109.50000 418.400000
1740 15519 7174 1 109.50000 418.400000
1740 15519 10854 1 109.50000 418.400000
7174 15519 10854 1 109.50000 418.400000
1340 15520 4200 1 109.50000 418.400000
1340 15520 8003 1 109.50000 418.400000
1340 15520 8345 1 109.50000 418.400000
4200 15520 8003 1 109.50000 418.400000
4200 15520 8345 1 109.50000 418.400000
8003 15520 8345 1 109.50000 418.400000
7544 15521 9126 1 109.50000 418.400000
7544 15521 9296 1 109.50000 418.400000
7544 15521 10673 1 109.50000 418.400000
9126 15521 9296 1 109.50000 418.400000
9126 15521 10673 1 109.50000 418.400000
9296 15521 10673 1 109.50000 418.400000
3521 15522 5349 1 109.50000 418.400000
3521 15522 7816 1 109.50000 418.400000
3521 15522 8221 1 109.50000 418.400000
5349 15522 7816 1 109.50000 418.400000
5349 15522 8221 1 109.50000 418.400000
7816 15522 8221 1 109.50000 418.400000
8120 15523 8780 1 109.50000 418.400000
8120 15523 10855 1 109.50000 418.400000
8120 15523 10903 1 109.50000 418.400000
8780 15523 10855 1 109.50000 418.400000
8780 15523 10903 1 109.50000 418.400000
10855 15523 10903 1 109.50000 418.400000
942 15524 1593 1 109.50000 418.400000
942 15524 10403 1 109.50000 418.400000
942 15524 10779 1 109.50000 418.400000
1593 15524 10403 1 109.50000 418.400000
1593 15524 10779 1 109.50000 418.400000
10403 15524 10779 1 109.50000 418.400000
859 15525 6760 1 109.50000 418.400000
859 15525 10904 1 109.50000 418.400000
859 15525 10905 1 109.50000 418.400000
6760 15525 10904 1 109.50000 418.400000
6760 15525 10905 1 109.50000 418.400000
10904 15525 10905 1 109.50000 418.400000
494 15526 3029 1 109.50000 418.400000
494 15526 9585 1 109.50000 418.400000
494 15526 10906 1 109.50000 418.400000
3029 15526 9585 1 109.50000 418.400000
3029 15526 10906 1 109.50000 418.400000
9585 15526 10906 1 109.50000 418.400000
2110 15527 5221 1 109.50000 418.400000
2110 15527 10907 1 109.50000 418.400000
2110 15527 11155 1 109.50000 418.400000
5221 15527 10907 1 109.50000 418.400000
5221 15527 11155 1 109.50000 418.400000
10907 15527 11155 1 109.50000 418.400000
6158 15528 8858 1 109.50000 418.400000
6158 15528 9775 1 109.50000 418.400000
6158 15528 10908 1 109.50000 418.400000
8858 15528 9775 1 109.50000 418.400000
8858 15528 10908 1 109.50000 418.400000
9775 15528 10908 1 109.50000 418.400000
2969 15529 8399 1 109.50000 418.400000
2969 15529 10909 1 109.50000 418.400000
2969 15529 10910 1 109.50000 418.400000
8399 15529 10909 1 109.50000 418.400000
8399 15529 10910 1 109.50000 418.400000
10909 15529 10910 1 109.50000 418.400000
6480 15530 8869 1 109.50000 418.400000
6480 15530 10867 1 109.50000 418.400000
6480 15530 10912 1 109.50000 418.400000
8869 15530 10867 1 109.50000 418.400000
8869 15530 10912 1 109.50000 418.400000
10867 15530 10912 1 109.50000 418.400000
2790 15531 2799 1 109.50000 418.400000
2790 15531 4006 1 109.50000 418.400000
2790 15531 10617 1 109.50000 418.400000
2799 15531 4006 1 109.50000 418.400000
2799 15531 10617 1 109.50000 418.400000
4006 15531 10617 1 109.50000 418.400000
6330 15532 6891 1 109.50000 418.400000
6330 15532 9789 1 109.50000 418.400000
6330 15532 9819 1 109.50000 418.400000
6891 15532 9789 1 109.50000 418.400000
6891 15532 9819 1 109.50000 418.400000
9789 15532 9819 1 109.50000 418.400000
4697 15533 8967 1 109.50000 418.400000
4697 15533 10889 1 109.50000 418.400000
4697 15533 10914 1 109.50000 418.400000
8967 15533 10889 1 109.50000 418.400000
8967 15533 10914 1 109.50000 418.400000
10889 15533 10914 1 109.50000 418.400000
2103 15534 2411 1 109.50000 418.400000
2103 15534 8577 1 109.50000 418.400000
2103 15534 8706 1 109.50000 418.400000
2411 15534 8577 1 109.50000 418.400000
2411 15534 8706 1 109.50000 418.400000
8577 15534 8706 1 109.50000 418.400000
2102 15535 3651 1 109.50000 418.400000
2102 15535 5999 1 109.50000 418.400000
2102 15535 10884 1 109.50000 418.400000
3651 15535 5999 1 109.50000 418.400000
3651 15535 10884 1 109.50000 418.400000
5999 15535 10884 1 109.50000 418.400000
8911 15536 9425 1 109.50000 418.400000
8911 15536 10211 1 109.50000 418.400000
8911 15536 10915 1 109.50000 418.400000
9425 15536 10211 1 109.50000 418.400000
9425 15536 10915 1 109.50000 418.400000
10211 15536 10915 1 109.50000 418.400000
9582 15537 9593 1 109.50000 418.400000
9582 15537 10832 1 109.50000 418.400000
9582 15537 10916 1 109.50000 418.400000
9593 15537 10832 1 109.50000 418.400000
9593 15537 10916 1 109.50000 418.400000
10832 15537 10916 1 109.50000 418.400000
2373 15538 4155 1 109.50000 418.400000
2373 15538 10138 1 109.50000 418.400000
2373 15538 10917 1 109.50000 418.400000
4155 15538 10138 1 109.50000 418.400000
4155 15538 10917 1 109.50000 418.400000
10138 15538 10917 1 109.50000 418.400000
2769 15539 6783 1 109.50000 418.400000
2769 15539 9772 1 109.50000 418.400000
2769 15539 10714 1 109.50000 418.400000
6783 15539 9772 1 109.50000 418.400000
6783 15539 10714 1 109.50000 418.400000
9772 15539 10714 1 109.50000 418.400000
3149 15540 7071 1 109.50000 418.400000
3149 15540 8531 1 109.50000 418.400000
3149 15540 10282 1 109.50000 418.400000
7071 15540 8531 1 109.50000 418.400000
7071 15540 10282 1 109.50000 418.400000
8531 15540 10282 1 109.50000 418.400000
3060 15541 9600 1 109.50000 418.400000
3060 15541 10597 1 109.50000 418.400000
3060 15541 10918 1 109.50000 418.400000
9600 15541 10597 1 109.50000 418.400000
9600 15541 10918 1 109.50000 418.400000
10597 15541 10918 1 109.50000 418.400000
1876 15542 8050 1 109.50000 418.400000
1876 15542 9047 1 109.50000 418.400000
1876 15542 10581 1 109.50000 418.400000
8050 15542 9047 1 109.50000 418.400000
8050 15542 10581 1 109.50000 418.400000
9047 15542 10581 1 109.50000 418.400000
427 15543 7259 1 109.50000 418.400000
427 15543 7685 1 109.50000 418.400000
427 15543 10797 1 109.50000 418.400000
7259 15543 7685 1 109.50000 418.400000
7259 15543 10797 1 109.50000 418.400000
7685 15543 10797 1 109.50000 418.400000
385 15544 4541 1 109.50000 418.400000
385 15544 8253 1 109.50000 418.400000
385 15544 9618 1 109.50000 418.400000
4541 15544 8253 1 109.50000 418.400000
4541 15544 9618 1 109.50000 418.400000
8253 15544 9618 1 109.50000 418.400000
4529 15545 9957 1 109.50000 418.400000
4529 15545 10150 1 109.50000 418.400000
4529 15545 10151 1 109.50000 418.400000
9957 15545 10150 1 109.50000 418.400000
9957 15545 10151 1 109.50000 418.400000
10150 15545 10151 1 109.50000 418.400000
551 15546 2245 1 109.50000 418.400000
551 15546 4003 1 109.50000 418.400000
551 15546 6297 1 109.50000 418.400000
2245 15546 4003 1 109.50000 418.400000
2245 15546 6297 1 109.50000 418.400000
4003 15546 6297 1 109.50000 418.400000
5049 15547 9041 1 109.50000 418.400000
5049 15547 9042 1 109.50000 418.400000
5049 15547 10919 1 109.50000 418.400000
9041 15547 9042 1 109.50000 418.400000
9041 15547 10919 1 109.50000 418.400000
9042 15547 10919 1 109.50000 418.400000
91 15548 9216 1 109.50000 418.400000
91 15548 9362 1 109.50000 418.400000
91 15548 10903 1 109.50000 418.400000
9216 15548 9362 1 109.50000 418.400000
9216 15548 10903 1 109.50000 418.400000
9362 15548 10903 1 109.50000 418.400000
6200 15549 7505 1 109.50000 418.400000
6200 15549 10687 1 109.50000 418.400000
6200 15549 10876 1 109.50000 418.400000
7505 15549 10687 1 109.50000 418.400000
7505 15549 10876 1 109.50000 418.400000
10687 15549 10876 1 109.50000 418.400000
4825 15550 6168 1 109.50000 418.400000
4825 15550 9103 1 109.50000 418.400000
4825 15550 10532 1 109.50000 418.400000
6168 15550 9103 1 109.50000 418.400000
6168 15550 10532 1 109.50000 418.400000
9103 15550 10532 1 109.50000 418.400000
7407 15551 8716 1 109.50000 418.400000
7407 15551 10921 1 109.50000 418.400000
7407 15551 10922 1 109.50000 418.400000
8716 15551 10921 1 109.50000 418.400000
8716 15551 10922 1 109.50000 418.400000
10921 15551 10922 1 109.50000 418.400000
5252 15552 5253 1 109.50000 418.400000
5252 15552 6619 1 109.50000 418.400000
5252 15552 10001 1 109.50000 418.400000
5253 15552 6619 1 109.50000 418.400000
5253 15552 10001 1 109.50000 418.400000
6619 15552 10001 1 109.50000 418.400000
2523 15553 6872 1 109.50000 418.400000
2523 15553 8185 1 109.50000 418.400000
2523 15553 9259 1 109.50000 418.400000
6872 15553 8185 1 109.50000 418.400000
6872 15553 9259 1 109.50000 418.400000
8185 15553 9259 1 109.50000 418.400000
3509 15554 5943 1 109.50000 418.400000
3509 15554 5944 1 109.50000 418.400000
3509 15554 5945 1 109.50000 418.400000
5943 15554 5944 1 109.50000 418.400000
5943 15554 5945 1 109.50000 418.400000
5944 15554 5945 1 109.50000 418.400000
7975 15555 9989 1 109.50000 418.400000
7975 15555 10269 1 109.50000 418.400000
7975 15555 10924 1 109.50000 418.400000
9989 15555 10269 1 109.50000 418.400000
9989 15555 10924 1 109.50000 418.400000
10269 15555 10924 1 109.50000 418.400000
3889 15556 6295 1 109.50000 418.400000
3889 15556 7887 1 109.50000 418.400000
3889 15556 8411 1 109.50000 418.400000
6295 15556 7887 1 109.50000 418.400000
6295 15556 8411 1 109.50000 418.400000
7887 15556 8411 1 109.50000 418.400000
5237 15557 6122 1 109.50000 418.400000
5237 15557 6784 1 109.50000 418.400000
5237 15557 10629 1 109.50000 418.400000
6122 15557 6784 1 109.50000 418.400000
6122 15557 10629 1 109.50000 418.400000
6784 15557 10629 1 109.50000 418.400000
4279 15558 6109 1 109.50000 418.400000
4279 15558 10376 1 109.50000 418.400000
4279 15558 10925 1 109.50000 418.400000
6109 15558 10376 1 109.50000 418.400000
6109 15558 10925 1 109.50000 418.400000
10376 15558 10925 1 109.50000 418.400000
1436 15559 4389 1 109.50000 418.400000
1436 15559 8757 1 109.50000 418.400000
1436 15559 10712 1 109.50000 418.400000
4389 15559 8757 1 109.50000 418.400000
4389 15559 10712 1 109.50000 418.400000
8757 15559 10712 1 109.50000 418.400000
1870 15560 2546 1 109.50000 418.400000
1870 15560 9122 1 109.50000 418.400000
1870 15560 9518 1 109.50000 418.400000
2546 15560 9122 1 109.50000 418.400000
2546 15560 9518 1 109.50000 418.400000
9122 15560 9518 1 109.50000 418.400000
1844 15561 10453 1 109.50000 418.400000
1844 15561 10908 1 109.50000 418.400000
1844 15561 10927 1 109.50000 418.400000
10453 15561 10908 1 109.50000 418.400000
10453 15561 10927 1 109.50000 418.400000
10908 15561 10927 1 109.50000 418.400000
4031 15562 7264 1 109.50000 418.400000
4031 15562 10488 1 109.50000 418.400000
4031 15562 11246 1 109.50000 418.400000
7264 15562 10488 1 109.50000 418.400000
7264 15562 11246 1 109.50000 418.400000
10488 15562 11246 1 109.50000 418.400000
5550 15563 7615 1 109.50000 418.400000
5550 15563 10928 1 109.50000 418.400000
5550 15563 10929 1 109.50000 418.400000
7615 15563 10928 1 109.50000 418.400000
7615 15563 10929 1 109.50000 418.400000
10928 15563 10929 1 109.50000 418.400000
9300 15564 9349 1 109.50000 418.400000
9300 15564 10930 1 109.50000 418.400000
9300 15564 11017 1 109.50000 418.400000
9349 15564 10930 1 109.50000 418.400000
9349 15564 11017 1 109.50000 418.400000
10930 15564 11017 1 109.50000 418.400000
1462 15565 8608 1 109.50000 418.400000
1462 15565 9525 1 109.50000 418.400000
1462 15565 9947 1 109.50000 418.400000
8608 15565 9525 1 109.50000 418.400000
8608 15565 9947 1 109.50000 418.400000
9525 15565 9947 1 109.50000 418.400000
2156 15566 4857 1 109.50000 418.400000
2156 15566 9074 1 109.50000 418.400000
2156 15566 10426 1 109.50000 418.400000
4857 15566 9074 1 109.50000 418.400000
4857 15566 10426 1 109.50000 418.400000
9074 15566 10426 1 109.50000 418.400000
1828 15567 2231 1 109.50000 418.400000
1828 15567 5705 1 109.50000 418.400000
1828 15567 10042 1 109.50000 418.400000
2231 15567 5705 1 109.50000 418.400000
2231 15567 10042 1 109.50000 418.400000
5705 15567 10042 1 109.50000 418.400000
2028 15568 3313 1 109.50000 418.400000
2028 15568 7727 1 109.50000 418.400000
2028 15568 9359 1 109.50000 418.400000
3313 15568 7727 1 109.50000 418.400000
3313 15568 9359 1 109.50000 418.400000
7727 15568 9359 1 109.50000 418.400000
1452 15569 9647 1 109.50000 418.400000
1452 15569 10487 1 109.50000 418.400000
1452 15569 10657 1 109.50000 418.400000
9647 15569 10487 1 109.50000 418.400000
9647 15569 10657 1 109.50000 418.400000
10487 15569 10657 1 109.50000 418.400000
3043 15570 3046 1 109.50000 418.400000
3043 15570 8683 1 109.50000 418.400000
3043 15570 10025 1 109.50000 418.400000
3046 15570 8683 1 109.50000 418.400000
3046 15570 10025 1 109.50000 418.400000
8683 15570 10025 1 109.50000 418.400000
7435 15571 9528 1 109.50000 418.400000
7435 15571 10334 1 109.50000 418.400000
7435 15571 10931 1 109.50000 418.400000
9528 15571 10334 1 109.50000 418.400000
9528 15571 10931 1 109.50000 418.400000
10334 15571 10931 1 109.50000 418.400000
6047 15572 6552 1 109.50000 418.400000
6047 15572 6587 1 109.50000 418.400000
6047 15572 7963 1 109.50000 418.400000
6552 15572 6587 1 109.50000 418.400000
6552 15572 7963 1 109.50000 418.400000
6587 15572 7963 1 109.50000 418.400000
1362 15573 7116 1 109.50000 418.400000
1362 15573 9829 1 109.50000 418.400000
1362 15573 10732 1 109.50000 418.400000
7116 15573 9829 1 109.50000 418.400000
7116 15573 10732 1 109.50000 418.400000
9829 15573 10732 1 109.50000 418.400000
1149 15574 4240 1 109.50000 418.400000
1149 15574 7147 1 109.50000 418.400000
1149 15574 10834 1 109.50000 418.400000
4240 15574 7147 1 109.50000 418.400000
4240 15574 10834 1 109.50000 418.400000
7147 15574 10834 1 109.50000 418.400000
5381 15575 8630 1 109.50000 418.400000
5381 15575 8700 1 109.50000 418.400000
5381 15575 10932 1 109.50000 418.400000
8630 15575 8700 1 109.50000 418.400000
8630 15575 10932 1 109.50000 418.400000
8700 15575 10932 1 109.50000 418.400000
206 15576 4662 1 109.50000 418.400000
206 15576 10277 1 109.50000 418.400000
206 15576 10737 1 109.50000 418.400000
4662 15576 10277 1 109.50000 418.400000
4662 15576 10737 1 109.50000 418.400000
10277 15576 10737 1 109.50000 418.400000
3515 15577 3826 1 109.50000 418.400000
3515 15577 5072 1 109.50000 418.400000
3515 15577 6175 1 109.50000 418.400000
3826 15577 5072 1 109.50000 418.400000
3826 15577 6175 1 109.50000 418.400000
5072 15577 6175 1 109.50000 418.400000
361 15578 2397 1 109.50000 418.400000
361 15578 10504 1 109.50000 418.400000
361 15578 10933 1 109.50000 418.400000
2397 15578 10504 1 109.50000 418.400000
2397 15578 10933 1 109.50000 418.400000
10504 15578 10933 1 109.50000 418.400000
1294 15579 1443 1 109.50000 418.400000
1294 15579 3468 1 109.50000 418.400000
1294 15579 9661 1 109.50000 418.400000
1443 15579 3468 1 109.50000 418.400000
1443 15579 9661 1 109.50000 418.400000
3468 15579 9661 1 109.50000 418.400000
1904 15580 9358 1 109.50000 418.400000
1904 15580 9901 1 109.50000 418.400000
1904 15580 10934 1 109.50000 418.400000
9358 15580 9901 1 109.50000 418.400000
9358 15580 10934 1 109.50000 418.400000
9901 15580 10934 1 109.50000 418.400000
73 15581 3562 1 109.50000 418.400000
73 15581 3564 1 109.50000 418.400000
73 15581 3565 1 109.50000 418.400000
3562 15581 3564 1 109.50000 418.400000
3562 15581 3565 1 109.50000 418.400000
3564 15581 3565 1 109.50000 418.400000
1975 15582 1977 1 109.50000 418.400000
1975 15582 6247 1 109.50000 418.400000
1975 15582 10636 1 109.50000 418.400000
1977 15582 6247 1 109.50000 418.400000
1977 15582 10636 1 109.50000 418.400000
6247 15582 10636 1 109.50000 418.400000
538 15583 6125 1 109.50000 418.400000
538 15583 7819 1 109.50000 418.400000
538 15583 10443 1 109.50000 418.400000
6125 15583 7819 1 109.50000 418.400000
6125 15583 10443 1 109.50000 418.400000
7819 15583 10443 1 109.50000 418.400000
1176 15584 3705 1 109.50000 418.400000
1176 15584 7655 1 109.50000 418.400000
1176 15584 10493 1 109.50000 418.400000
3705 15584 7655 1 109.50000 418.400000
3705 15584 10493 1 109.50000 418.400000
7655 15584 10493 1 109.50000 418.400000
6317 15585 10681 1 109.50000 418.400000
6317 15585 10863 1 109.50000 418.400000
6317 15585 10935 1 109.50000 418.400000
10681 15585 10863 1 109.50000 418.400000
10681 15585 10935 1 109.50000 418.400000
10863 15585 10935 1 109.50000 418.400000
1357 15586 5585 1 109.50000 418.400000
1357 15586 6812 1 109.50000 418.400000
1357 15586 8417 1 109.50000 418.400000
5585 15586 6812 1 109.50000 418.400000
5585 15586 8417 1 109.50000 418.400000
6812 15586 8417 1 109.50000 418.400000
1575 15587 1576 1 109.50000 418.400000
1575 15587 8450 1 109.50000 418.400000
1575 15587 9851 1 109.50000 418.400000
1576 15587 8450 1 109.50000 418.400000
1576 15587 9851 1 109.50000 418.400000
8450 15587 9851 1 109.50000 418.400000
1485 15588 3481 1 109.50000 418.400000
1485 15588 6803 1 109.50000 418.400000
1485 15588 9706 1 109.50000 418.400000
3481 15588 6803 1 109.50000 418.400000
3481 15588 9706 1 109.50000 418.400000
6803 15588 9706 1 109.50000 418.400000
452 15589 6068 1 109.50000 418.400000
452 15589 8026 1 109.50000 418.400000
452 15589 10878 1 109.50000 418.400000
6068 15589 8026 1 109.50000 418.400000
6068 15589 10878 1 109.50000 418.400000
8026 15589 10878 1 109.50000 418.400000
320 15590 3192 1 109.50000 418.400000
320 15590 7764 1 109.50000 418.400000
320 15590 10337 1 109.50000 418.400000
3192 15590 7764 1 109.50000 418.400000
3192 15590 10337 1 109.50000 418.400000
7764 15590 10337 1 109.50000 418.400000
5505 15591 7125 1 109.50000 418.400000
5505 15591 7222 1 109.50000 418.400000
5505 15591 9985 1 109.50000 418.400000
7125 15591 7222 1 109.50000 418.400000
7125 15591 9985 1 109.50000 418.400000
7222 15591 9985 1 109.50000 418.400000
1070 15592 5255 1 109.50000 418.400000
1070 15592 9608 1 109.50000 418.400000
1070 15592 10875 1 109.50000 418.400000
5255 15592 9608 1 109.50000 418.400000
5255 15592 10875 1 109.50000 418.400000
9608 15592 10875 1 109.50000 418.400000
3388 15593 5659 1 109.50000 418.400000
3388 15593 9333 1 109.50000 418.400000
3388 15593 10045 1 109.50000 418.400000
5659 15593 9333 1 109.50000 418.400000
5659 15593 10045 1 109.50000 418.400000
9333 15593 10045 1 109.50000 418.400000
1632 15594 8767 1 109.50000 418.400000
1632 15594 10715 1 109.50000 418.400000
1632 15594 10936 1 109.50000 418.400000
8767 15594 10715 1 109.50000 418.400000
8767 15594 10936 1 109.50000 418.400000
10715 15594 10936 1 109.50000 418.400000
3801 15595 4804 1 109.50000 418.400000
3801 15595 7027 1 109.50000 418.400000
3801 15595 10683 1 109.50000 418.400000
4804 15595 7027 1 109.50000 418.400000
4804 15595 10683 1 109.50000 418.400000
7027 15595 10683 1 109.50000 418.400000
8611 15596 8614 1 109.50000 418.400000
8611 15596 8840 1 109.50000 418.400000
8611 15596 10937 1 109.50000 418.400000
8614 15596 8840 1 109.50000 418.400000
8614 15596 10937 1 109.50000 418.400000
8840 15596 10937 1 109.50000 418.400000
6142 15597 6337 1 109.50000 418.400000
6142 15597 7735 1 109.50000 418.400000
6142 15597 10938 1 109.50000 418.400000
6337 15597 7735 1 109.50000 418.400000
6337 15597 10938 1 109.50000 418.400000
7735 15597 10938 1 109.50000 418.400000
3318 15598 5479 1 109.50000 418.400000
3318 15598 6064 1 109.50000 418.400000
3318 15598 10320 1 109.50000 418.400000
5479 15598 6064 1 109.50000 418.400000
5479 15598 10320 1 109.50000 418.400000
6064 15598 10320 1 109.50000 418.400000
1178 15599 6597 1 109.50000 418.400000
1178 15599 7702 1 109.50000 418.400000
1178 15599 9832 1 109.50000 418.400000
6597 15599 7702 1 109.50000 418.400000
6597 15599 9832 1 109.50000 418.400000
7702 15599 9832 1 109.50000 418.400000
352 15600 1479 1 109.50000 418.400000
352 15600 7944 1 109.50000 418.400000
352 15600 10939 1 109.50000 418.400000
1479 15600 7944 1 109.50000 418.400000
1479 15600 10939 1 109.50000 418.400000
7944 15600 10939 1 109.50000 418.400000
3844 15601 6584 1 109.50000 418.400000
3844 15601 9265 1 109.50000 418.400000
3844 15601 10941 1 109.50000 418.400000
6584 15601 9265 1 109.50000 418.400000
6584 15601 10941 1 109.50000 418.400000
9265 15601 10941 1 109.50000 418.400000
2961 15602 7423 1 109.50000 418.400000
2961 15602 9013 1 109.50000 418.400000
2961 15602 9369 1 109.50000 418.400000
7423 15602 9013 1 109.50000 418.400000
7423 15602 9369 1 109.50000 418.400000
9013 15602 9369 1 109.50000 418.400000
5567 15603 7131 1 109.50000 418.400000
5567 15603 7132 1 109.50000 418.400000
5567 15603 10084 1 109.50000 418.400000
7131 15603 7132 1 109.50000 418.400000
7131 15603 10084 1 109.50000 418.400000
7132 15603 10084 1 109.50000 418.400000
7825 15604 10058 1 109.50000 418.400000
7825 15604 10217 1 109.50000 418.400000
7825 15604 10456 1 109.50000 418.400000
10058 15604 10217 1 109.50000 418.400000
10058 15604 10456 1 109.50000 418.400000
10217 15604 10456 1 109.50000 418.400000
2629 15605 5862 1 109.50000 418.400000
2629 15605 10943 1 109.50000 418.400000
2629 15605 10944 1 109.50000 418.400000
5862 15605 10943 1 109.50000 418.400000
5862 15605 10944 1 109.50000 418.400000
10943 15605 10944 1 109.50000 418.400000
3737 15606 6679 1 109.50000 418.400000
3737 15606 7679 1 109.50000 418.400000
3737 15606 9708 1 109.50000 418.400000
6679 15606 7679 1 109.50000 418.400000
6679 15606 9708 1 109.50000 418.400000
7679 15606 9708 1 109.50000 418.400000
976 15607 3014 1 109.50000 418.400000
976 15607 10811 1 109.50000 418.400000
976 15607 10945 1 109.50000 418.400000
3014 15607 10811 1 109.50000 418.400000
3014 15607 10945 1 109.50000 418.400000
10811 15607 10945 1 109.50000 418.400000
7228 15608 8653 1 109.50000 418.400000
7228 15608 9113 1 109.50000 418.400000
7228 15608 10946 1 109.50000 418.400000
8653 15608 9113 1 109.50000 418.400000
8653 15608 10946 1 109.50000 418.400000
9113 15608 10946 1 109.50000 418.400000
3716 15609 6459 1 109.50000 418.400000
3716 15609 9341 1 109.50000 418.400000
3716 15609 10947 1 109.50000 418.400000
6459 15609 9341 1 109.50000 418.400000
6459 15609 10947 1 109.50000 418.400000
9341 15609 10947 1 109.50000 418.400000
2822 15610 4848 1 109.50000 418.400000
2822 15610 4849 1 109.50000 418.400000
2822 15610 10948 1 109.50000 418.400000
4848 15610 4849 1 109.50000 418.400000
4848 15610 10948 1 109.50000 418.400000
4849 15610 10948 1 109.50000 418.400000
107 15611 2062 1 109.50000 418.400000
107 15611 2768 1 109.50000 418.400000
107 15611 10527 1 109.50000 418.400000
2062 15611 2768 1 109.50000 418.400000
2062 15611 10527 1 109.50000 418.400000
2768 15611 10527 1 109.50000 418.400000
1017 15612 8550 1 109.50000 418.400000
1017 15612 10475 1 109.50000 418.400000
1017 15612 10857 1 109.50000 418.400000
8550 15612 10475 1 109.50000 418.400000
8550 15612 10857 1 109.50000 418.400000
10475 15612 10857 1 109.50000 418.400000
10219 15613 10860 1 109.50000 418.400000
10219 15613 10951 1 109.50000 418.400000
10219 15613 10952 1 109.50000 418.400000
10860 15613 10951 1 109.50000 418.400000
10860 15613 10952 1 109.50000 418.400000
10951 15613 10952 1 109.50000 418.400000
9066 15614 9976 1 109.50000 418.400000
9066 15614 10348 1 109.50000 418.400000
9066 15614 10953 1 109.50000 418.400000
9976 15614 10348 1 109.50000 418.400000
9976 15614 10953 1 109.50000 418.400000
10348 15614 10953 1 109.50000 418.400000
836 15615 4727 1 109.50000 418.400000
836 15615 10013 1 109.50000 418.400000
836 15615 10900 1 109.50000 418.400000
4727 15615 10013 1 109.50000 418.400000
4727 15615 10900 1 109.50000 418.400000
10013 15615 10900 1 109.50000 418.400000
4139 15616 4361 1 109.50000 418.400000
4139 15616 5260 1 109.50000 418.400000
4139 15616 9654 1 109.50000 418.400000
4361 15616 5260 1 109.50000 418.400000
4361 15616 9654 1 109.50000 418.400000
5260 15616 9654 1 109.50000 418.400000
1826 15617 1989 1 109.50000 418.400000
1826 15617 8164 1 109.50000 418.400000
1826 15617 10954 1 109.50000 418.400000
1989 15617 8164 1 109.50000 418.400000
1989 15617 10954 1 109.50000 418.400000
8164 15617 10954 1 109.50000 418.400000
5545 15618 5547 1 109.50000 418.400000
5545 15618 7949 1 109.50000 418.400000
5545 15618 10955 1 109.50000 418.400000
5547 15618 7949 1 109.50000 418.400000
5547 15618 10955 1 109.50000 418.400000
7949 15618 10955 1 109.50000 418.400000
3075 15619 7994 1 109.50000 418.400000
3075 15619 9302 1 109.50000 418.400000
3075 15619 10640 1 109.50000 418.400000
7994 15619 9302 1 109.50000 418.400000
7994 15619 10640 1 109.50000 418.400000
9302 15619 10640 1 109.50000 418.400000
1057 15620 5507 1 109.50000 418.400000
1057 15620 8477 1 109.50000 418.400000
1057 15620 10956 1 109.50000 418.400000
5507 15620 8477 1 109.50000 418.400000
5507 15620 10956 1 109.50000 418.400000
8477 15620 10956 1 109.50000 418.400000
2816 15621 3206 1 109.50000 418.400000
2816 15621 9998 1 109.50000 418.400000
2816 15621 10141 1 109.50000 418.400000
3206 15621 9998 1 109.50000 418.400000
3206 15621 10141 1 109.50000 418.400000
9998 15621 10141 1 109.50000 418.400000
1781 15622 6734 1 109.50000 418.400000
1781 15622 6735 1 109.50000 418.400000
1781 15622 11168 1 109.50000 418.400000
6734 15622 6735 1 109.50000 418.400000
6734 15622 11168 1 109.50000 418.400000
6735 15622 11168 1 109.50000 418.400000
3855 15623 6298 1 109.50000 418.400000
3855 15623 7566 1 109.50000 418.400000
3855 15623 10242 1 109.50000 418.400000
6298 15623 7566 1 109.50000 418.400000
6298 15623 10242 1 109.50000 418.400000
7566 15623 10242 1 109.50000 418.400000
2206 15624 4940 1 109.50000 418.400000
2206 15624 10074 1 109.50000 418.400000
2206 15624 10825 1 109.50000 418.400000
4940 15624 10074 1 109.50000 418.400000
4940 15624 10825 1 109.50000 418.400000
10074 15624 10825 1 109.50000 418.400000
1419 15625 6711 1 109.50000 418.400000
1419 15625 8831 1 109.50000 418.400000
1419 15625 9121 1 109.50000 418.400000
6711 15625 8831 1 109.50000 418.400000
6711 15625 9121 1 109.50000 418.400000
8831 15625 9121 1 109.50000 418.400000
3524 15626 5373 1 109.50000 418.400000
3524 15626 5772 1 109.50000 418.400000
3524 15626 9263 1 109.50000 418.400000
5373 15626 5772 1 109.50000 418.400000
5373 15626 9263 1 109.50000 418.400000
5772 15626 9263 1 109.50000 418.400000
4265 15627 6654 1 109.50000 418.400000
4265 15627 7372 1 109.50000 418.400000
4265 15627 7750 1 109.50000 418.400000
6654 15627 7372 1 109.50000 418.400000
6654 15627 7750 1 109.50000 418.400000
7372 15627 7750 1 109.50000 418.400000
3987 15628 7079 1 109.50000 418.400000
3987 15628 8625 1 109.50000 418.400000
3987 15628 10631 1 109.50000 418.400000
7079 15628 8625 1 109.50000 418.400000
7079 15628 10631 1 109.50000 418.400000
8625 15628 10631 1 109.50000 418.400000
6724 15629 6974 1 109.50000 418.400000
6724 15629 7164 1 109.50000 418.400000
6724 15629 10958 1 109.50000 418.400000
6974 15629 7164 1 109.50000 418.400000
6974 15629 10958 1 109.50000 418.400000
7164 15629 10958 1 109.50000 418.400000
6390 15630 7754 1 109.50000 418.400000
6390 15630 10565 1 109.50000 418.400000
6390 15630 10842 1 109.50000 418.400000
7754 15630 10565 1 109.50000 418.400000
7754 15630 10842 1 109.50000 418.400000
10565 15630 10842 1 109.50000 418.400000
8492 15631 10959 1 109.50000 418.400000
8492 15631 10960 1 109.50000 418.400000
8492 15631 10961 1 109.50000 418.400000
10959 15631 10960 1 109.50000 418.400000
10959 15631 10961 1 109.50000 418.400000
10960 15631 10961 1 109.50000 418.400000
3137 15632 3523 1 109.50000 418.400000
3137 15632 8977 1 109.50000 418.400000
3137 15632 10962 1 109.50000 418.400000
3523 15632 8977 1 109.50000 418.400000
3523 15632 10962 1 109.50000 418.400000
8977 15632 10962 1 109.50000 418.400000
826 15633 2854 1 109.50000 418.400000
826 15633 5089 1 109.50000 418.400000
826 15633 10223 1 109.50000 418.400000
2854 15633 5089 1 109.50000 418.400000
2854 15633 10223 1 109.50000 418.400000
5089 15633 10223 1 109.50000 418.400000
4818 15634 6211 1 109.50000 418.400000
4818 15634 8183 1 109.50000 418.400000
4818 15634 10963 1 109.50000 418.400000
6211 15634 8183 1 109.50000 418.400000
6211 15634 10963 1 109.50000 418.400000
8183 15634 10963 1 109.50000 418.400000
3683 15635 5574 1 109.50000 418.400000
3683 15635 6864 1 109.50000 418.400000
3683 15635 10966 1 109.50000 418.400000
5574 15635 6864 1 109.50000 418.400000
5574 15635 10966 1 109.50000 418.400000
6864 15635 10966 1 109.50000 418.400000
2519 15636 8821 1 109.50000 418.400000
2519 15636 9714 1 109.50000 418.400000
2519 15636 10113 1 109.50000 418.400000
8821 15636 9714 1 109.50000 418.400000
8821 15636 10113 1 109.50000 418.400000
9714 15636 10113 1 109.50000 418.400000
7033 15637 9109 1 109.50000 418.400000
7033 15637 10729 1 109.50000 418.400000
7033 15637 10967 1 109.50000 418.400000
9109 15637 10729 1 109.50000 418.400000
9109 15637 10967 1 109.50000 418.400000
10729 15637 10967 1 109.50000 418.400000
795 15638 5177 1 109.50000 418.400000
795 15638 10806 1 109.50000 418.400000
795 15638 10968 1 109.50000 418.400000
5177 15638 10806 1 109.50000 418.400000
5177 15638 10968 1 109.50000 418.400000
10806 15638 10968 1 109.50000 418.400000
8740 15639 10744 1 109.50000 418.400000
8740 15639 10824 1 109.50000 418.400000
8740 15639 10969 1 109.50000 418.400000
10744 15639 10824 1 109.50000 418.400000
10744 15639 10969 1 109.50000 418.400000
10824 15639 10969 1 109.50000 418.400000
7733 15640 7877 1 109.50000 418.400000
7733 15640 10940 1 109.50000 418.400000
7733 15640 11160 1 109.50000 418.400000
7877 15640 10940 1 109.50000 418.400000
7877 15640 11160 1 109.50000 418.400000
10940 15640 11160 1 109.50000 418.400000
5353 15641 8112 1 109.50000 418.400000
5353 15641 9774 1 109.50000 418.400000
5353 15641 10970 1 109.50000 418.400000
8112 15641 9774 1 109.50000 418.400000
8112 15641 10970 1 109.50000 418.400000
9774 15641 10970 1 109.50000 418.400000
7758 15642 10365 1 109.50000 418.400000
7758 15642 10388 1 109.50000 418.400000
7758 15642 10971 1 109.50000 418.400000
10365 15642 10388 1 109.50000 418.400000
10365 15642 10971 1 109.50000 418.400000
10388 15642 10971 1 109.50000 418.400000
8233 15643 9723 1 109.50000 418.400000
8233 15643 10130 1 109.50000 418.400000
8233 15643 10972 1 109.50000 418.400000
9723 15643 10130 1 109.50000 418.400000
9723 15643 10972 1 109.50000 418.400000
10130 15643 10972 1 109.50000 418.400000
4243 15644 4965 1 109.50000 418.400000
4243 15644 6556 1 109.50000 418.400000
4243 15644 8993 1 109.50000 418.400000
4965 15644 6556 1 109.50000 418.400000
4965 15644 8993 1 109.50000 418.400000
6556 15644 8993 1 109.50000 418.400000
1104 15645 6947 1 109.50000 418.400000
1104 15645 8109 1 109.50000 418.400000
1104 15645 10128 1 109.50000 418.400000
6947 15645 8109 1 109.50000 418.400000
6947 15645 10128 1 109.50000 418.400000
8109 15645 10128 1 109.50000 418.400000
1989 15646 1990 1 109.50000 418.400000
1989 15646 7199 1 109.50000 418.400000
1989 15646 10973 1 109.50000 418.400000
1990 15646 7199 1 109.50000 418.400000
1990 15646 10973 1 109.50000 418.400000
7199 15646 10973 1 109.50000 418.400000
66 15647 5220 1 109.50000 418.400000
66 15647 8262 1 109.50000 418.400000
66 15647 11229 1 109.50000 418.400000
5220 15647 8262 1 109.50000 418.400000
5220 15647 11229 1 109.50000 418.400000
8262 15647 11229 1 109.50000 418.400000
1306 15648 2398 1 109.50000 418.400000
1306 15648 2401 1 109.50000 418.400000
1306 15648 4936 1 109.50000 418.400000
2398 15648 2401 1 109.50000 418.400000
2398 15648 4936 1 109.50000 418.400000
2401 15648 4936 1 109.50000 418.400000
5454 15649 6877 1 109.50000 418.400000
5454 15649 10020 1 109.50000 418.400000
5454 15649 10975 1 109.50000 418.400000
6877 15649 10020 1 109.50000 418.400000
6877 15649 10975 1 109.50000 418.400000
10020 15649 10975 1 109.50000 418.400000
1572 15650 2632 1 109.50000 418.400000
1572 15650 4967 1 109.50000 418.400000
1572 15650 9026 1 109.50000 418.400000
2632 15650 4967 1 109.50000 418.400000
2632 15650 9026 1 109.50000 418.400000
4967 15650 9026 1 109.50000 418.400000
7881 15651 8818 1 109.50000 418.400000
7881 15651 10205 1 109.50000 418.400000
7881 15651 10763 1 109.50000 418.400000
8818 15651 10205 1 109.50000 418.400000
8818 15651 10763 1 109.50000 418.400000
10205 15651 10763 1 109.50000 418.400000
5394 15652 10592 1 109.50000 418.400000
5394 15652 10976 1 109.50000 418.400000
5394 15652 11163 1 109.50000 418.400000
10592 15652 10976 1 109.50000 418.400000
10592 15652 11163 1 109.50000 418.400000
10976 15652 11163 1 109.50000 418.400000
3224 15653 4080 1 109.50000 418.400000
3224 15653 4495 1 109.50000 418.400000
3224 15653 10736 1 109.50000 418.400000
4080 15653 4495 1 109.50000 418.400000
4080 15653 10736 1 109.50000 418.400000
4495 15653 10736 1 109.50000 418.400000
3467 15654 5385 1 109.50000 418.400000
3467 15654 9023 1 109.50000 418.400000
3467 15654 10769 1 109.50000 418.400000
5385 15654 9023 1 109.50000 418.400000
5385 15654 10769 1 109.50000 418.400000
9023 15654 10769 1 109.50000 418.400000
4613 15655 10919 1 109.50000 418.400000
4613 15655 10977 1 109.50000 418.400000
4613 15655 10978 1 109.50000 418.400000
10919 15655 10977 1 109.50000 418.400000
10919 15655 10978 1 109.50000 418.400000
10977 15655 10978 1 109.50000 418.400000
264 15656 1732 1 109.50000 418.400000
264 15656 10494 1 109.50000 418.400000
264 15656 10979 1 109.50000 418.400000
1732 15656 10494 1 109.50000 418.400000
1732 15656 10979 1 109.50000 418.400000
10494 15656 10979 1 109.50000 418.400000
7021 15657 7345 1 109.50000 418.400000
7021 15657 10964 1 109.50000 418.400000
7021 15657 10981 1 109.50000 418.400000
7345 15657 10964 1 109.50000 418.400000
7345 15657 10981 1 109.50000 418.400000
10964 15657 10981 1 109.50000 418.400000
4856 15658 4889 1 109.50000 418.400000
4856 15658 10367 1 109.50000 418.400000
4856 15658 10982 1 109.50000 418.400000
4889 15658 10367 1 109.50000 418.400000
4889 15658 10982 1 109.50000 418.400000
10367 15658 10982 1 109.50000 418.400000
1221 15659 2349 1 109.50000 418.400000
1221 15659 2602 1 109.50000 418.400000
1221 15659 10694 1 109.50000 418.400000
2349 15659 2602 1 109.50000 418.400000
2349 15659 10694 1 109.50000 418.400000
2602 15659 10694 1 109.50000 418.400000
4605 15660 8535 1 109.50000 418.400000
4605 15660 9573 1 109.50000 418.400000
4605 15660 9855 1 109.50000 418.400000
8535 15660 9573 1 109.50000 418.400000
8535 15660 9855 1 109.50000 418.400000
9573 15660 9855 1 109.50000 418.400000
1125 15661 4127 1 109.50000 418.400000
1125 15661 8807 1 109.50000 418.400000
1125 15661 10676 1 109.50000 418.400000
4127 15661 8807 1 109.50000 418.400000
4127 15661 10676 1 109.50000 418.400000
8807 15661 10676 1 109.50000 418.400000
7390 15662 10983 1 109.50000 418.400000
7390 15662 10984 1 109.50000 418.400000
7390 15662 10985 1 109.50000 418.400000
10983 15662 10984 1 109.50000 418.400000
10983 15662 10985 1 109.50000 418.400000
10984 15662 10985 1 109.50000 418.400000
3428 15663 8103 1 109.50000 418.400000
3428 15663 9157 1 109.50000 418.400000
3428 15663 10986 1 109.50000 418.400000
8103 15663 9157 1 109.50000 418.400000
8103 15663 10986 1 109.50000 418.400000
9157 15663 10986 1 109.50000 418.400000
242 15664 3690 1 109.50000 418.400000
242 15664 4646 1 109.50000 418.400000
242 15664 7486 1 109.50000 418.400000
3690 15664 4646 1 109.50000 418.400000
3690 15664 7486 1 109.50000 418.400000
4646 15664 7486 1 109.50000 418.400000
3546 15665 3888 1 109.50000 418.400000
3546 15665 6828 1 109.50000 418.400000
3546 15665 9203 1 109.50000 418.400000
3888 15665 6828 1 109.50000 418.400000
3888 15665 9203 1 109.50000 418.400000
6828 15665 9203 1 109.50000 418.400000
1528 15666 7517 1 109.50000 418.400000
1528 15666 8509 1 109.50000 418.400000
1528 15666 10874 1 109.50000 418.400000
7517 15666 8509 1 109.50000 418.400000
7517 15666 10874 1 109.50000 418.400000
8509 15666 10874 1 109.50000 418.400000
6531 15667 10395 1 109.50000 418.400000
6531 15667 10780 1 109.50000 418.400000
6531 15667 10987 1 109.50000 418.400000
10395 15667 10780 1 109.50000 418.400000
10395 15667 10987 1 109.50000 418.400000
10780 15667 10987 1 109.50000 418.400000
2639 15668 9480 1 109.50000 418.400000
2639 15668 10956 1 109.50000 418.400000
2639 15668 10989 1 109.50000 418.400000
9480 15668 10956 1 109.50000 418.400000
9480 15668 10989 1 109.50000 418.400000
10956 15668 10989 1 109.50000 418.400000
4504 15669 6012 1 109.50000 418.400000
4504 15669 8560 1 109.50000 418.400000
4504 15669 9704 1 109.50000 418.400000
6012 15669 8560 1 109.50000 418.400000
6012 15669 9704 1 109.50000 418.400000
8560 15669 9704 1 109.50000 418.400000
5816 15670 6239 1 109.50000 418.400000
5816 15670 6378 1 109.50000 418.400000
5816 15670 8142 1 109.50000 418.400000
6239 15670 6378 1 109.50000 418.400000
6239 15670 8142 1 109.50000 418.400000
6378 15670 8142 1 109.50000 418.400000
3242 15671 6114 1 109.50000 418.400000
3242 15671 7513 1 109.50000 418.400000
3242 15671 10669 1 109.50000 418.400000
6114 15671 7513 1 109.50000 418.400000
6114 15671 10669 1 109.50000 418.400000
7513 15671 10669 1 109.50000 418.400000
776 15672 7745 1 109.50000 418.400000
776 15672 9363 1 109.50000 418.400000
776 15672 10990 1 109.50000 418.400000
7745 15672 9363 1 109.50000 418.400000
7745 15672 10990 1 109.50000 418.400000
9363 15672 10990 1 109.50000 418.400000
6287 15673 8544 1 109.50000 418.400000
6287 15673 9431 1 109.50000 418.400000
6287 15673 10692 1 109.50000 418.400000
8544 15673 9431 1 109.50000 418.400000
8544 15673 10692 1 109.50000 418.400000
9431 15673 10692 1 109.50000 418.400000
516 15674 3339 1 109.50000 418.400000
516 15674 3596 1 109.50000 418.400000
516 15674 10982 1 109.50000 418.400000
3339 15674 3596 1 109.50000 418.400000
3339 15674 10982 1 109.50000 418.400000
3596 15674 10982 1 109.50000 418.400000
295 15675 7237 1 109.50000 418.400000
295 15675 9160 1 109.50000 418.400000
295 15675 10775 1 109.50000 418.400000
7237 15675 9160 1 109.50000 418.400000
7237 15675 10775 1 109.50000 418.400000
9160 15675 10775 1 109.50000 418.400000
4863 15676 10333 1 109.50000 418.400000
4863 15676 10444 1 109.50000 418.400000
4863 15676 10724 1 109.50000 418.400000
10333 15676 10444 1 109.50000 418.400000
10333 15676 10724 1 109.50000 418.400000
10444 15676 10724 1 109.50000 418.400000
3785 15677 6140 1 109.50000 418.400000
3785 15677 6252 1 109.50000 418.400000
3785 15677 6504 1 109.50000 418.400000
6140 15677 6252 1 109.50000 418.400000
6140 15677 6504 1 109.50000 418.400000
6252 15677 6504 1 109.50000 418.400000
5923 15678 6104 1 109.50000 418.400000
5923 15678 8209 1 109.50000 418.400000
5923 15678 10951 1 109.50000 418.400000
6104 15678 8209 1 109.50000 418.400000
6104 15678 10951 1 109.50000 418.400000
8209 15678 10951 1 109.50000 418.400000
6564 15679 7545 1 109.50000 418.400000
6564 15679 7599 1 109.50000 418.400000
6564 15679 7998 1 109.50000 418.400000
7545 15679 7599 1 109.50000 418.400000
7545 15679 7998 1 109.50000 418.400000
7599 15679 7998 1 109.50000 418.400000
2119 15680 8387 1 109.50000 418.400000
2119 15680 8690 1 109.50000 418.400000
2119 15680 10641 1 109.50000 418.400000
8387 15680 8690 1 109.50000 418.400000
8387 15680 10641 1 109.50000 418.400000
8690 15680 10641 1 109.50000 418.400000
2056 15681 3636 1 109.50000 418.400000
2056 15681 8099 1 109.50000 418.400000
2056 15681 8101 1 109.50000 418.400000
3636 15681 8099 1 109.50000 418.400000
3636 15681 8101 1 109.50000 418.400000
8099 15681 8101 1 109.50000 418.400000
9199 15682 9595 1 109.50000 418.400000
9199 15682 9597 1 109.50000 418.400000
9199 15682 10643 1 109.50000 418.400000
9595 15682 9597 1 109.50000 418.400000
9595 15682 10643 1 109.50000 418.400000
9597 15682 10643 1 109.50000 418.400000
9200 15683 9871 1 109.50000 418.400000
9200 15683 9894 1 109.50000 418.400000
9200 15683 10531 1 109.50000 418.400000
9871 15683 9894 1 109.50000 418.400000
9871 15683 10531 1 109.50000 418.400000
9894 15683 10531 1 109.50000 418.400000
3033 15684 4759 1 109.50000 418.400000
3033 15684 10622 1 109.50000 418.400000
3033 15684 10662 1 109.50000 418.400000
4759 15684 10622 1 109.50000 418.400000
4759 15684 10662 1 109.50000 418.400000
10622 15684 10662 1 109.50000 418.400000
7752 15685 10460 1 109.50000 418.400000
7752 15685 10663 1 109.50000 418.400000
7752 15685 10992 1 109.50000 418.400000
10460 15685 10663 1 109.50000 418.400000
10460 15685 10992 1 109.50000 418.400000
10663 15685 10992 1 109.50000 418.400000
2737 15686 5238 1 109.50000 418.400000
2737 15686 5239 1 109.50000 418.400000
2737 15686 9820 1 109.50000 418.400000
5238 15686 5239 1 109.50000 418.400000
5238 15686 9820 1 109.50000 418.400000
5239 15686 9820 1 109.50000 418.400000
6644 15687 8276 1 109.50000 418.400000
6644 15687 9778 1 109.50000 418.400000
6644 15687 10838 1 109.50000 418.400000
8276 15687 9778 1 109.50000 418.400000
8276 15687 10838 1 109.50000 418.400000
9778 15687 10838 1 109.50000 418.400000
5886 15688 8266 1 109.50000 418.400000
5886 15688 10738 1 109.50000 418.400000
5886 15688 10993 1 109.50000 418.400000
8266 15688 10738 1 109.50000 418.400000
8266 15688 10993 1 109.50000 418.400000
10738 15688 10993 1 109.50000 418.400000
3314 15689 6979 1 109.50000 418.400000
3314 15689 8698 1 109.50000 418.400000
3314 15689 9409 1 109.50000 418.400000
6979 15689 8698 1 109.50000 418.400000
6979 15689 9409 1 109.50000 418.400000
8698 15689 9409 1 109.50000 418.400000
5850 15690 6958 1 109.50000 418.400000
5850 15690 10727 1 109.50000 418.400000
5850 15690 10994 1 109.50000 418.400000
6958 15690 10727 1 109.50000 418.400000
6958 15690 10994 1 109.50000 418.400000
10727 15690 10994 1 109.50000 418.400000
67 15691 1300 1 109.50000 418.400000
67 15691 6408 1 109.50000 418.400000
67 15691 10816 1 109.50000 418.400000
1300 15691 6408 1 109.50000 418.400000
1300 15691 10816 1 109.50000 418.400000
6408 15691 10816 1 109.50000 418.400000
182 15692 8148 1 109.50000 418.400000
182 15692 8149 1 109.50000 418.400000
182 15692 10970 1 109.50000 418.400000
8148 15692 8149 1 109.50000 418.400000
8148 15692 10970 1 109.50000 418.400000
8149 15692 10970 1 109.50000 418.400000
3085 15693 5476 1 109.50000 418.400000
3085 15693 5553 1 109.50000 418.400000
3085 15693 8907 1 109.50000 418.400000
5476 15693 5553 1 109.50000 418.400000
5476 15693 8907 1 109.50000 418.400000
5553 15693 8907 1 109.50000 418.400000
2113 15694 7148 1 109.50000 418.400000
2113 15694 9667 1 109.50000 418.400000
2113 15694 9920 1 109.50000 418.400000
7148 15694 9667 1 109.50000 418.400000
7148 15694 9920 1 109.50000 418.400000
9667 15694 9920 1 109.50000 418.400000
7917 15695 8894 1 109.50000 418.400000
7917 15695 9196 1 109.50000 418.400000
7917 15695 10434 1 109.50000 418.400000
8894 15695 9196 1 109.50000 418.400000
8894 15695 10434 1 109.50000 418.400000
9196 15695 10434 1 109.50000 418.400000
852 15696 7932 1 109.50000 418.400000
852 15696 9921 1 109.50000 418.400000
852 15696 10635 1 109.50000 418.400000
7932 15696 9921 1 109.50000 418.400000
7932 15696 10635 1 109.50000 418.400000
9921 15696 10635 1 109.50000 418.400000
5362 15697 6722 1 109.50000 418.400000
5362 15697 7263 1 109.50000 418.400000
5362 15697 10656 1 109.50000 418.400000
6722 15697 7263 1 109.50000 418.400000
6722 15697 10656 1 109.50000 418.400000
7263 15697 10656 1 109.50000 418.400000
3080 15698 8376 1 109.50000 418.400000
3080 15698 9345 1 109.50000 418.400000
3080 15698 10612 1 109.50000 418.400000
8376 15698 9345 1 109.50000 418.400000
8376 15698 10612 1 109.50000 418.400000
9345 15698 10612 1 109.50000 418.400000
7575 15699 9945 1 109.50000 418.400000
7575 15699 10018 1 109.50000 418.400000
7575 15699 10109 1 109.50000 418.400000
9945 15699 10018 1 109.50000 418.400000
9945 15699 10109 1 109.50000 418.400000
10018 15699 10109 1 109.50000 418.400000
730 15700 6566 1 109.50000 418.400000
730 15700 10067 1 109.50000 418.400000
730 15700 10996 1 109.50000 418.400000
6566 15700 10067 1 109.50000 418.400000
6566 15700 10996 1 109.50000 418.400000
10067 15700 10996 1 109.50000 418.400000
1488 15701 3765 1 109.50000 418.400000
1488 15701 10469 1 109.50000 418.400000
1488 15701 10997 1 109.50000 418.400000
3765 15701 10469 1 109.50000 418.400000
3765 15701 10997 1 109.50000 418.400000
10469 15701 10997 1 109.50000 418.400000
1637 15702 5766 1 109.50000 418.400000
1637 15702 5989 1 109.50000 418.400000
1637 15702 9182 1 109.50000 418.400000
5766 15702 5989 1 109.50000 418.400000
5766 15702 9182 1 109.50000 418.400000
5989 15702 9182 1 109.50000 418.400000
4339 15703 9625 1 109.50000 418.400000
4339 15703 10427 1 109.50000 418.400000
4339 15703 10820 1 109.50000 418.400000
9625 15703 10427 1 109.50000 418.400000
9625 15703 10820 1 109.50000 418.400000
10427 15703 10820 1 109.50000 418.400000
4380 15704 5548 1 109.50000 418.400000
4380 15704 9705 1 109.50000 418.400000
4380 15704 9707 1 109.50000 418.400000
5548 15704 9705 1 109.50000 418.400000
5548 15704 9707 1 109.50000 418.400000
9705 15704 9707 1 109.50000 418.400000
1183 15705 6799 1 109.50000 418.400000
1183 15705 7163 1 109.50000 418.400000
1183 15705 10977 1 109.50000 418.400000
6799 15705 7163 1 109.50000 418.400000
6799 15705 10977 1 109.50000 418.400000
7163 15705 10977 1 109.50000 418.400000
4190 15706 7090 1 109.50000 418.400000
4190 15706 7634 1 109.50000 418.400000
4190 15706 10599 1 109.50000 418.400000
7090 15706 7634 1 109.50000 418.400000
7090 15706 10599 1 109.50000 418.400000
7634 15706 10599 1 109.50000 418.400000
4217 15707 6060 1 109.50000 418.400000
4217 15707 10735 1 109.50000 418.400000
4217 15707 10998 1 109.50000 418.400000
6060 15707 10735 1 109.50000 418.400000
6060 15707 10998 1 109.50000 418.400000
10735 15707 10998 1 109.50000 418.400000
100 15708 4258 1 109.50000 418.400000
100 15708 7890 1 109.50000 418.400000
100 15708 9996 1 109.50000 418.400000
4258 15708 7890 1 109.50000 418.400000
4258 15708 9996 1 109.50000 418.400000
7890 15708 9996 1 109.50000 418.400000
5289 15709 7853 1 109.50000 418.400000
5289 15709 10999 1 109.50000 418.400000
5289 15709 11000 1 109.50000 418.400000
7853 15709 10999 1 109.50000 418.400000
7853 15709 11000 1 109.50000 418.400000
10999 15709 11000 1 109.50000 418.400000
7047 15710 7541 1 109.50000 418.400000
7047 15710 11001 1 109.50000 418.400000
7047 15710 11002 1 109.50000 418.400000
7541 15710 11001 1 109.50000 418.400000
7541 15710 11002 1 109.50000 418.400000
11001 15710 11002 1 109.50000 418.400000
1179 15711 5263 1 109.50000 418.400000
1179 15711 5636 1 109.50000 418.400000
1179 15711 7160 1 109.50000 418.400000
5263 15711 5636 1 109.50000 418.400000
5263 15711 7160 1 109.50000 418.400000
5636 15711 7160 1 109.50000 418.400000
2409 15712 4398 1 109.50000 418.400000
2409 15712 11003 1 109.50000 418.400000
2409 15712 11004 1 109.50000 418.400000
4398 15712 11003 1 109.50000 418.400000
4398 15712 11004 1 109.50000 418.400000
11003 15712 11004 1 109.50000 418.400000
5244 15713 6271 1 109.50000 418.400000
5244 15713 9675 1 109.50000 418.400000
5244 15713 10204 1 109.50000 418.400000
6271 15713 9675 1 109.50000 418.400000
6271 15713 10204 1 109.50000 418.400000
9675 15713 10204 1 109.50000 418.400000
901 15714 4360 1 109.50000 418.400000
901 15714 6944 1 109.50000 418.400000
901 15714 8640 1 109.50000 418.400000
4360 15714 6944 1 109.50000 418.400000
4360 15714 8640 1 109.50000 418.400000
6944 15714 8640 1 109.50000 418.400000
6432 15715 8889 1 109.50000 418.400000
6432 15715 9221 1 109.50000 418.400000
6432 15715 9786 1 109.50000 418.400000
8889 15715 9221 1 109.50000 418.400000
8889 15715 9786 1 109.50000 418.400000
9221 15715 9786 1 109.50000 418.400000
231 15716 6718 1 109.50000 418.400000
231 15716 9372 1 109.50000 418.400000
231 15716 10016 1 109.50000 418.400000
6718 15716 9372 1 109.50000 418.400000
6718 15716 10016 1 109.50000 418.400000
9372 15716 10016 1 109.50000 418.400000
1784 15717 2536 1 109.50000 418.400000
1784 15717 4410 1 109.50000 418.400000
1784 15717 4757 1 109.50000 418.400000
2536 15717 4410 1 109.50000 418.400000
2536 15717 4757 1 109.50000 418.400000
4410 15717 4757 1 109.50000 418.400000
1728 15718 9257 1 109.50000 418.400000
1728 15718 9435 1 109.50000 418.400000
1728 15718 9726 1 109.50000 418.400000
9257 15718 9435 1 109.50000 418.400000
9257 15718 9726 1 109.50000 418.400000
9435 15718 9726 1 109.50000 418.400000
1700 15719 3399 1 109.50000 418.400000
1700 15719 10535 1 109.50000 418.400000
1700 15719 11005 1 109.50000 418.400000
3399 15719 10535 1 109.50000 418.400000
3399 15719 11005 1 109.50000 418.400000
10535 15719 11005 1 109.50000 418.400000
6680 15720 7140 1 109.50000 418.400000
6680 15720 10926 1 109.50000 418.400000
6680 15720 10928 1 109.50000 418.400000
7140 15720 10926 1 109.50000 418.400000
7140 15720 10928 1 109.50000 418.400000
10926 15720 10928 1 109.50000 418.400000
3795 15721 4990 1 109.50000 418.400000
3795 15721 8824 1 109.50000 418.400000
3795 15721 10962 1 109.50000 418.400000
4990 15721 8824 1 109.50000 418.400000
4990 15721 10962 1 109.50000 418.400000
8824 15721 10962 1 109.50000 418.400000
2259 15722 5129 1 109.50000 418.400000
2259 15722 7335 1 109.50000 418.400000
2259 15722 9294 1 109.50000 418.400000
5129 15722 7335 1 109.50000 418.400000
5129 15722 9294 1 109.50000 418.400000
7335 15722 9294 1 109.50000 418.400000
2198 15723 3711 1 109.50000 418.400000
2198 15723 6114 1 109.50000 418.400000
2198 15723 10275 1 109.50000 418.400000
3711 15723 6114 1 109.50000 418.400000
3711 15723 10275 1 109.50000 418.400000
6114 15723 10275 1 109.50000 418.400000
4852 15724 8378 1 109.50000 418.400000
4852 15724 8933 1 109.50000 418.400000
4852 15724 9279 1 109.50000 418.400000
8378 15724 8933 1 109.50000 418.400000
8378 15724 9279 1 109.50000 418.400000
8933 15724 9279 1 109.50000 418.400000
1293 15725 8472 1 109.50000 418.400000
1293 15725 9646 1 109.50000 418.400000
1293 15725 10563 1 109.50000 418.400000
8472 15725 9646 1 109.50000 418.400000
8472 15725 10563 1 109.50000 418.400000
9646 15725 10563 1 109.50000 418.400000
789 15726 1245 1 109.50000 418.400000
789 15726 10484 1 109.50000 418.400000
789 15726 10955 1 109.50000 418.400000
1245 15726 10484 1 109.50000 418.400000
1245 15726 10955 1 109.50000 418.400000
10484 15726 10955 1 109.50000 418.400000
5058 15727 9500 1 109.50000 418.400000
5058 15727 9650 1 109.50000 418.400000
5058 15727 10758 1 109.50000 418.400000
9500 15727 9650 1 109.50000 418.400000
9500 15727 10758 1 109.50000 418.400000
9650 15727 10758 1 109.50000 418.400000
6091 15728 8522 1 109.50000 418.400000
6091 15728 8902 1 109.50000 418.400000
6091 15728 10925 1 109.50000 418.400000
8522 15728 8902 1 109.50000 418.400000
8522 15728 10925 1 109.50000 418.400000
8902 15728 10925 1 109.50000 418.400000
2354 15729 6078 1 109.50000 418.400000
2354 15729 9913 1 109.50000 418.400000
2354 15729 10969 1 109.50000 418.400000
6078 15729 9913 1 109.50000 418.400000
6078 15729 10969 1 109.50000 418.400000
9913 15729 10969 1 109.50000 418.400000
2518 15730 3100 1 109.50000 418.400000
2518 15730 10950 1 109.50000 418.400000
2518 15730 11237 1 109.50000 418.400000
3100 15730 10950 1 109.50000 418.400000
3100 15730 11237 1 109.50000 418.400000
10950 15730 11237 1 109.50000 418.400000
4416 15731 8402 1 109.50000 418.400000
4416 15731 10187 1 109.50000 418.400000
4416 15731 10435 1 109.50000 418.400000
8402 15731 10187 1 109.50000 418.400000
8402 15731 10435 1 109.50000 418.400000
10187 15731 10435 1 109.50000 418.400000
5080 15732 7318 1 109.50000 418.400000
5080 15732 8888 1 109.50000 418.400000
5080 15732 10543 1 109.50000 418.400000
7318 15732 8888 1 109.50000 418.400000
7318 15732 10543 1 109.50000 418.400000
8888 15732 10543 1 109.50000 418.400000
4899 15733 10466 1 109.50000 418.400000
4899 15733 10523 1 109.50000 418.400000
4899 15733 11010 1 109.50000 418.400000
10466 15733 10523 1 109.50000 418.400000
10466 15733 11010 1 109.50000 418.400000
10523 15733 11010 1 109.50000 418.400000
998 15734 2402 1 109.50000 418.400000
998 15734 8006 1 109.50000 418.400000
998 15734 9185 1 109.50000 418.400000
2402 15734 8006 1 109.50000 418.400000
2402 15734 9185 1 109.50000 418.400000
8006 15734 9185 1 109.50000 418.400000
8574 15735 8583 1 109.50000 418.400000
8574 15735 9543 1 109.50000 418.400000
8574 15735 10905 1 109.50000 418.400000
8583 15735 9543 1 109.50000 418.400000
8583 15735 10905 1 109.50000 418.400000
9543 15735 10905 1 109.50000 418.400000
2599 15736 5100 1 109.50000 418.400000
2599 15736 11011 1 109.50000 418.400000
2599 15736 11072 1 109.50000 418.400000
5100 15736 11011 1 109.50000 418.400000
5100 15736 11072 1 109.50000 418.400000
11011 15736 11072 1 109.50000 418.400000
879 15737 5096 1 109.50000 418.400000
879 15737 7642 1 109.50000 418.400000
879 15737 10136 1 109.50000 418.400000
5096 15737 7642 1 109.50000 418.400000
5096 15737 10136 1 109.50000 418.400000
7642 15737 10136 1 109.50000 418.400000
1967 15738 4386 1 109.50000 418.400000
1967 15738 8123 1 109.50000 418.400000
1967 15738 9794 1 109.50000 418.400000
4386 15738 8123 1 109.50000 418.400000
4386 15738 9794 1 109.50000 418.400000
8123 15738 9794 1 109.50000 418.400000
548 15739 1880 1 109.50000 418.400000
548 15739 3857 1 109.50000 418.400000
548 15739 11012 1 109.50000 418.400000
1880 15739 3857 1 109.50000 418.400000
1880 15739 11012 1 109.50000 418.400000
3857 15739 11012 1 109.50000 418.400000
2242 15740 9120 1 109.50000 418.400000
2242 15740 10927 1 109.50000 418.400000
2242 15740 11013 1 109.50000 418.400000
9120 15740 10927 1 109.50000 418.400000
9120 15740 11013 1 109.50000 418.400000
10927 15740 11013 1 109.50000 418.400000
5366 15741 5725 1 109.50000 418.400000
5366 15741 10980 1 109.50000 418.400000
5366 15741 11014 1 109.50000 418.400000
5725 15741 10980 1 109.50000 418.400000
5725 15741 11014 1 109.50000 418.400000
10980 15741 11014 1 109.50000 418.400000
5632 15742 5633 1 109.50000 418.400000
5632 15742 10169 1 109.50000 418.400000
5632 15742 11015 1 109.50000 418.400000
5633 15742 10169 1 109.50000 418.400000
5633 15742 11015 1 109.50000 418.400000
10169 15742 11015 1 109.50000 418.400000
2006 15743 7362 1 109.50000 418.400000
2006 15743 7915 1 109.50000 418.400000
2006 15743 11016 1 109.50000 418.400000
7362 15743 7915 1 109.50000 418.400000
7362 15743 11016 1 109.50000 418.400000
7915 15743 11016 1 109.50000 418.400000
1403 15744 4357 1 109.50000 418.400000
1403 15744 10739 1 109.50000 418.400000
1403 15744 10930 1 109.50000 418.400000
4357 15744 10739 1 109.50000 418.400000
4357 15744 10930 1 109.50000 418.400000
10739 15744 10930 1 109.50000 418.400000
9604 15745 10163 1 109.50000 418.400000
9604 15745 11018 1 109.50000 418.400000
9604 15745 11019 1 109.50000 418.400000
10163 15745 11018 1 109.50000 418.400000
10163 15745 11019 1 109.50000 418.400000
11018 15745 11019 1 109.50000 418.400000
6848 15746 7155 1 109.50000 418.400000
6848 15746 10697 1 109.50000 418.400000
6848 15746 10952 1 109.50000 418.400000
7155 15746 10697 1 109.50000 418.400000
7155 15746 10952 1 109.50000 418.400000
10697 15746 10952 1 109.50000 418.400000
661 15747 1304 1 109.50000 418.400000
661 15747 7350 1 109.50000 418.400000
661 15747 10338 1 109.50000 418.400000
1304 15747 7350 1 109.50000 418.400000
1304 15747 10338 1 109.50000 418.400000
7350 15747 10338 1 109.50000 418.400000
3021 15748 7052 1 109.50000 418.400000
3021 15748 9781 1 109.50000 418.400000
3021 15748 9930 1 109.50000 418.400000
7052 15748 9781 1 109.50000 418.400000
7052 15748 9930 1 109.50000 418.400000
9781 15748 9930 1 109.50000 418.400000
7091 15749 7092 1 109.50000 418.400000
7091 15749 8208 1 109.50000 418.400000
7091 15749 10301 1 109.50000 418.400000
7092 15749 8208 1 109.50000 418.400000
7092 15749 10301 1 109.50000 418.400000
8208 15749 10301 1 109.50000 418.400000
5699 15750 8064 1 109.50000 418.400000
5699 15750 10372 1 109.50000 418.400000
5699 15750 10936 1 109.50000 418.400000
8064 15750 10372 1 109.50000 418.400000
8064 15750 10936 1 109.50000 418.400000
10372 15750 10936 1 109.50000 418.400000
919 15751 2926 1 109.50000 418.400000
919 15751 9611 1 109.50000 418.400000
919 15751 10260 1 109.50000 418.400000
2926 15751 9611 1 109.50000 418.400000
2926 15751 10260 1 109.50000 418.400000
9611 15751 10260 1 109.50000 418.400000
8274 15752 8943 1 109.50000 418.400000
8274 15752 10730 1 109.50000 418.400000
8274 15752 11020 1 109.50000 418.400000
8943 15752 10730 1 109.50000 418.400000
8943 15752 11020 1 109.50000 418.400000
10730 15752 11020 1 109.50000 418.400000
5695 15753 8490 1 109.50000 418.400000
5695 15753 10319 1 109.50000 418.400000
5695 15753 11022 1 109.50000 418.400000
8490 15753 10319 1 109.50000 418.400000
8490 15753 11022 1 109.50000 418.400000
10319 15753 11022 1 109.50000 418.400000
183 15754 9733 1 109.50000 418.400000
183 15754 10364 1 109.50000 418.400000
183 15754 11023 1 109.50000 418.400000
9733 15754 10364 1 109.50000 418.400000
9733 15754 11023 1 109.50000 418.400000
10364 15754 11023 1 109.50000 418.400000
7108 15755 7789 1 109.50000 418.400000
7108 15755 10915 1 109.50000 418.400000
7108 15755 10966 1 109.50000 418.400000
7789 15755 10915 1 109.50000 418.400000
7789 15755 10966 1 109.50000 418.400000
10915 15755 10966 1 109.50000 418.400000
585 15756 2153 1 109.50000 418.400000
585 15756 2204 1 109.50000 418.400000
585 15756 2820 1 109.50000 418.400000
2153 15756 2204 1 109.50000 418.400000
2153 15756 2820 1 109.50000 418.400000
2204 15756 2820 1 109.50000 418.400000
4585 15757 7277 1 109.50000 418.400000
4585 15757 7279 1 109.50000 418.400000
4585 15757 10346 1 109.50000 418.400000
7277 15757 7279 1 109.50000 418.400000
7277 15757 10346 1 109.50000 418.400000
7279 15757 10346 1 109.50000 418.400000
2430 15758 2946 1 109.50000 418.400000
2430 15758 4298 1 109.50000 418.400000
2430 15758 7417 1 109.50000 418.400000
2946 15758 4298 1 109.50000 418.400000
2946 15758 7417 1 109.50000 418.400000
4298 15758 7417 1 109.50000 418.400000
115 15759 4165 1 109.50000 418.400000
115 15759 8098 1 109.50000 418.400000
115 15759 10208 1 109.50000 418.400000
4165 15759 8098 1 109.50000 418.400000
4165 15759 10208 1 109.50000 418.400000
8098 15759 10208 1 109.50000 418.400000
2742 15760 9553 1 109.50000 418.400000
2742 15760 11024 1 109.50000 418.400000
2742 15760 11025 1 109.50000 418.400000
9553 15760 11024 1 109.50000 418.400000
9553 15760 11025 1 109.50000 418.400000
11024 15760 11025 1 109.50000 418.400000
5755 15761 6206 1 109.50000 418.400000
5755 15761 9536 1 109.50000 418.400000
5755 15761 11026 1 109.50000 418.400000
6206 15761 9536 1 109.50000 418.400000
6206 15761 11026 1 109.50000 418.400000
9536 15761 11026 1 109.50000 418.400000
7473 15762 8803 1 109.50000 418.400000
7473 15762 10091 1 109.50000 418.400000
7473 15762 10871 1 109.50000 418.400000
8803 15762 10091 1 109.50000 418.400000
8803 15762 10871 1 109.50000 418.400000
10091 15762 10871 1 109.50000 418.400000
7060 15763 7649 1 109.50000 418.400000
7060 15763 9462 1 109.50000 418.400000
7060 15763 10458 1 109.50000 418.400000
7649 15763 9462 1 109.50000 418.400000
7649 15763 10458 1 109.50000 418.400000
9462 15763 10458 1 109.50000 418.400000
7586 15764 9111 1 109.50000 418.400000
7586 15764 10442 1 109.50000 418.400000
7586 15764 10607 1 109.50000 418.400000
9111 15764 10442 1 109.50000 418.400000
9111 15764 10607 1 109.50000 418.400000
10442 15764 10607 1 109.50000 418.400000
7924 15765 8988 1 109.50000 418.400000
7924 15765 10490 1 109.50000 418.400000
7924 15765 11027 1 109.50000 418.400000
8988 15765 10490 1 109.50000 418.400000
8988 15765 11027 1 109.50000 418.400000
10490 15765 11027 1 109.50000 418.400000
7411 15766 8403 1 109.50000 418.400000
7411 15766 9134 1 109.50000 418.400000
7411 15766 10305 1 109.50000 418.400000
8403 15766 9134 1 109.50000 418.400000
8403 15766 10305 1 109.50000 418.400000
9134 15766 10305 1 109.50000 418.400000
1930 15767 9177 1 109.50000 418.400000
1930 15767 10318 1 109.50000 418.400000
1930 15767 11028 1 109.50000 418.400000
9177 15767 10318 1 109.50000 418.400000
9177 15767 11028 1 109.50000 418.400000
10318 15767 11028 1 109.50000 418.400000
7472 15768 7895 1 109.50000 418.400000
7472 15768 11029 1 109.50000 418.400000
7472 15768 11030 1 109.50000 418.400000
7895 15768 11029 1 109.50000 418.400000
7895 15768 11030 1 109.50000 418.400000
11029 15768 11030 1 109.50000 418.400000
9108 15769 10483 1 109.50000 418.400000
9108 15769 10498 1 109.50000 418.400000
9108 15769 11031 1 109.50000 418.400000
10483 15769 10498 1 109.50000 418.400000
10483 15769 11031 1 109.50000 418.400000
10498 15769 11031 1 109.50000 418.400000
2086 15770 9664 1 109.50000 418.400000
2086 15770 10655 1 109.50000 418.400000
2086 15770 10770 1 109.50000 418.400000
9664 15770 10655 1 109.50000 418.400000
9664 15770 10770 1 109.50000 418.400000
10655 15770 10770 1 109.50000 418.400000
1871 15771 6659 1 109.50000 418.400000
1871 15771 7015 1 109.50000 418.400000
1871 15771 7723 1 109.50000 418.400000
6659 15771 7015 1 109.50000 418.400000
6659 15771 7723 1 109.50000 418.400000
7015 15771 7723 1 109.50000 418.400000
110 15772 1198 1 109.50000 418.400000
110 15772 4754 1 109.50000 418.400000
110 15772 4755 1 109.50000 418.400000
1198 15772 4754 1 109.50000 418.400000
1198 15772 4755 1 109.50000 418.400000
4754 15772 4755 1 109.50000 418.400000
5867 15773 10177 1 109.50000 418.400000
5867 15773 10520 1 109.50000 418.400000
5867 15773 10893 1 109.50000 418.400000
10177 15773 10520 1 109.50000 418.400000
10177 15773 10893 1 109.50000 418.400000
10520 15773 10893 1 109.50000 418.400000
3742 15774 8121 1 109.50000 418.400000
3742 15774 11012 1 109.50000 418.400000
3742 15774 11033 1 109.50000 418.400000
8121 15774 11012 1 109.50000 418.400000
8121 15774 11033 1 109.50000 418.400000
11012 15774 11033 1 109.50000 418.400000
1614 15775 6305 1 109.50000 418.400000
1614 15775 6993 1 109.50000 418.400000
1614 15775 10751 1 109.50000 418.400000
6305 15775 6993 1 109.50000 418.400000
6305 15775 10751 1 109.50000 418.400000
6993 15775 10751 1 109.50000 418.400000
7874 15776 10144 1 109.50000 418.400000
7874 15776 10462 1 109.50000 418.400000
7874 15776 10831 1 109.50000 418.400000
10144 15776 10462 1 109.50000 418.400000
10144 15776 10831 1 109.50000 418.400000
10462 15776 10831 1 109.50000 418.400000
2106 15777 5597 1 109.50000 418.400000
2106 15777 7319 1 109.50000 418.400000
2106 15777 10856 1 109.50000 418.400000
5597 15777 7319 1 109.50000 418.400000
5597 15777 10856 1 109.50000 418.400000
7319 15777 10856 1 109.50000 418.400000
4176 15778 5339 1 109.50000 418.400000
4176 15778 9155 1 109.50000 418.400000
4176 15778 10693 1 109.50000 418.400000
5339 15778 9155 1 109.50000 418.400000
5339 15778 10693 1 109.50000 418.400000
9155 15778 10693 1 109.50000 418.400000
1932 15779 3611 1 109.50000 418.400000
1932 15779 9101 1 109.50000 418.400000
1932 15779 10999 1 109.50000 418.400000
3611 15779 9101 1 109.50000 418.400000
3611 15779 10999 1 109.50000 418.400000
9101 15779 10999 1 109.50000 418.400000
2904 15780 7294 1 109.50000 418.400000
2904 15780 8561 1 109.50000 418.400000
2904 15780 10061 1 109.50000 418.400000
7294 15780 8561 1 109.50000 418.400000
7294 15780 10061 1 109.50000 418.400000
8561 15780 10061 1 109.50000 418.400000
165 15781 2621 1 109.50000 418.400000
165 15781 3505 1 109.50000 418.400000
165 15781 10182 1 109.50000 418.400000
2621 15781 3505 1 109.50000 418.400000
2621 15781 10182 1 109.50000 418.400000
3505 15781 10182 1 109.50000 418.400000
6118 15782 8756 1 109.50000 418.400000
6118 15782 9208 1 109.50000 418.400000
6118 15782 11034 1 109.50000 418.400000
8756 15782 9208 1 109.50000 418.400000
8756 15782 11034 1 109.50000 418.400000
9208 15782 11034 1 109.50000 418.400000
1853 15783 6289 1 109.50000 418.400000
1853 15783 6316 1 109.50000 418.400000
1853 15783 10883 1 109.50000 418.400000
6289 15783 6316 1 109.50000 418.400000
6289 15783 10883 1 109.50000 418.400000
6316 15783 10883 1 109.50000 418.400000
1323 15784 1342 1 109.50000 418.400000
1323 15784 2830 1 109.50000 418.400000
1323 15784 9036 1 109.50000 418.400000
1342 15784 2830 1 109.50000 418.400000
1342 15784 9036 1 109.50000 418.400000
2830 15784 9036 1 109.50000 418.400000
5702 15785 8566 1 109.50000 418.400000
5702 15785 9367 1 109.50000 418.400000
5702 15785 10890 1 109.50000 418.400000
8566 15785 9367 1 109.50000 418.400000
8566 15785 10890 1 109.50000 418.400000
9367 15785 10890 1 109.50000 418.400000
1157 15786 1468 1 109.50000 418.400000
1157 15786 8843 1 109.50000 418.400000
1157 15786 10143 1 109.50000 418.400000
1468 15786 8843 1 109.50000 418.400000
1468 15786 10143 1 109.50000 418.400000
8843 15786 10143 1 109.50000 418.400000
6570 15787 8267 1 109.50000 418.400000
6570 15787 9478 1 109.50000 418.400000
6570 15787 11004 1 109.50000 418.400000
8267 15787 9478 1 109.50000 418.400000
8267 15787 11004 1 109.50000 418.400000
9478 15787 11004 1 109.50000 418.400000
1521 15788 10452 1 109.50000 418.400000
1521 15788 10879 1 109.50000 418.400000
1521 15788 11035 1 109.50000 418.400000
10452 15788 10879 1 109.50000 418.400000
10452 15788 11035 1 109.50000 418.400000
10879 15788 11035 1 109.50000 418.400000
3671 15789 3763 1 109.50000 418.400000
3671 15789 4800 1 109.50000 418.400000
3671 15789 9444 1 109.50000 418.400000
3763 15789 4800 1 109.50000 418.400000
3763 15789 9444 1 109.50000 418.400000
4800 15789 9444 1 109.50000 418.400000
1310 15790 3155 1 109.50000 418.400000
1310 15790 7965 1 109.50000 418.400000
1310 15790 11036 1 109.50000 418.400000
3155 15790 7965 1 109.50000 418.400000
3155 15790 11036 1 109.50000 418.400000
7965 15790 11036 1 109.50000 418.400000
7639 15791 9055 1 109.50000 418.400000
7639 15791 9587 1 109.50000 418.400000
7639 15791 10679 1 109.50000 418.400000
9055 15791 9587 1 109.50000 418.400000
9055 15791 10679 1 109.50000 418.400000
9587 15791 10679 1 109.50000 418.400000
913 15792 8250 1 109.50000 418.400000
913 15792 10236 1 109.50000 418.400000
913 15792 11037 1 109.50000 418.400000
8250 15792 10236 1 109.50000 418.400000
8250 15792 11037 1 109.50000 418.400000
10236 15792 11037 1 109.50000 418.400000
2724 15793 4970 1 109.50000 418.400000
2724 15793 8598 1 109.50000 418.400000
2724 15793 9599 1 109.50000 418.400000
4970 15793 8598 1 109.50000 418.400000
4970 15793 9599 1 109.50000 418.400000
8598 15793 9599 1 109.50000 418.400000
607 15794 7211 1 109.50000 418.400000
607 15794 8921 1 109.50000 418.400000
607 15794 11038 1 109.50000 418.400000
7211 15794 8921 1 109.50000 418.400000
7211 15794 11038 1 109.50000 418.400000
8921 15794 11038 1 109.50000 418.400000
23 15795 10199 1 109.50000 418.400000
23 15795 10685 1 109.50000 418.400000
23 15795 10971 1 109.50000 418.400000
10199 15795 10685 1 109.50000 418.400000
10199 15795 10971 1 109.50000 418.400000
10685 15795 10971 1 109.50000 418.400000
1721 15796 5573 1 109.50000 418.400000
1721 15796 8732 1 109.50000 418.400000
1721 15796 10064 1 109.50000 418.400000
5573 15796 8732 1 109.50000 418.400000
5573 15796 10064 1 109.50000 418.400000
8732 15796 10064 1 109.50000 418.400000
6031 15797 6032 1 109.50000 418.400000
6031 15797 6494 1 109.50000 418.400000
6031 15797 10495 1 109.50000 418.400000
6032 15797 6494 1 109.50000 418.400000
6032 15797 10495 1 109.50000 418.400000
6494 15797 10495 1 109.50000 418.400000
2262 15798 8745 1 109.50000 418.400000
2262 15798 9373 1 109.50000 418.400000
2262 15798 10308 1 109.50000 418.400000
8745 15798 9373 1 109.50000 418.400000
8745 15798 10308 1 109.50000 418.400000
9373 15798 10308 1 109.50000 418.400000
1024 15799 1908 1 109.50000 418.400000
1024 15799 4101 1 109.50000 418.400000
1024 15799 10728 1 109.50000 418.400000
1908 15799 4101 1 109.50000 418.400000
1908 15799 10728 1 109.50000 418.400000
4101 15799 10728 1 109.50000 418.400000
233 15800 3059 1 109.50000 418.400000
233 15800 4478 1 109.50000 418.400000
233 15800 10185 1 109.50000 418.400000
3059 15800 4478 1 109.50000 418.400000
3059 15800 10185 1 109.50000 418.400000
4478 15800 10185 1 109.50000 418.400000
2539 15801 4469 1 109.50000 418.400000
2539 15801 10958 1 109.50000 418.400000
2539 15801 11039 1 109.50000 418.400000
4469 15801 10958 1 109.50000 418.400000
4469 15801 11039 1 109.50000 418.400000
10958 15801 11039 1 109.50000 418.400000
7130 15802 8470 1 109.50000 418.400000
7130 15802 8990 1 109.50000 418.400000
7130 15802 10946 1 109.50000 418.400000
8470 15802 8990 1 109.50000 418.400000
8470 15802 10946 1 109.50000 418.400000
8990 15802 10946 1 109.50000 418.400000
5635 15803 5805 1 109.50000 418.400000
5635 15803 10473 1 109.50000 418.400000
5635 15803 10810 1 109.50000 418.400000
5805 15803 10473 1 109.50000 418.400000
5805 15803 10810 1 109.50000 418.400000
10473 15803 10810 1 109.50000 418.400000
3159 15804 6420 1 109.50000 418.400000
3159 15804 7240 1 109.50000 418.400000
3159 15804 7241 1 109.50000 418.400000
6420 15804 7240 1 109.50000 418.400000
6420 15804 7241 1 109.50000 418.400000
7240 15804 7241 1 109.50000 418.400000
2129 15805 3870 1 109.50000 418.400000
2129 15805 4465 1 109.50000 418.400000
2129 15805 8486 1 109.50000 418.400000
3870 15805 4465 1 109.50000 418.400000
3870 15805 8486 1 109.50000 418.400000
4465 15805 8486 1 109.50000 418.400000
1509 15806 5818 1 109.50000 418.400000
1509 15806 10387 1 109.50000 418.400000
1509 15806 10885 1 109.50000 418.400000
5818 15806 10387 1 109.50000 418.400000
5818 15806 10885 1 109.50000 418.400000
10387 15806 10885 1 109.50000 418.400000
4316 15807 5316 1 109.50000 418.400000
4316 15807 6284 1 109.50000 418.400000
4316 15807 8992 1 109.50000 418.400000
5316 15807 6284 1 109.50000 418.400000
5316 15807 8992 1 109.50000 418.400000
6284 15807 8992 1 109.50000 418.400000
4022 15808 4025 1 109.50000 418.400000
4022 15808 9388 1 109.50000 418.400000
4022 15808 11040 1 109.50000 418.400000
4025 15808 9388 1 109.50000 418.400000
4025 15808 11040 1 109.50000 418.400000
9388 15808 11040 1 109.50000 418.400000
4505 15809 8126 1 109.50000 418.400000
4505 15809 8270 1 109.50000 418.400000
4505 15809 8495 1 109.50000 418.400000
8126 15809 8270 1 109.50000 418.400000
8126 15809 8495 1 109.50000 418.400000
8270 15809 8495 1 109.50000 418.400000
179 15810 4317 1 109.50000 418.400000
179 15810 8773 1 109.50000 418.400000
179 15810 10777 1 109.50000 418.400000
4317 15810 8773 1 109.50000 418.400000
4317 15810 10777 1 109.50000 418.400000
8773 15810 10777 1 109.50000 418.400000
3861 15811 10761 1 109.50000 418.400000
3861 15811 10924 1 109.50000 418.400000
3861 15811 10963 1 109.50000 418.400000
10761 15811 10924 1 109.50000 418.400000
10761 15811 10963 1 109.50000 418.400000
10924 15811 10963 1 109.50000 418.400000
4695 15812 9933 1 109.50000 418.400000
4695 15812 11041 1 109.50000 418.400000
4695 15812 11042 1 109.50000 418.400000
9933 15812 11041 1 109.50000 418.400000
9933 15812 11042 1 109.50000 418.400000
11041 15812 11042 1 109.50000 418.400000
4763 15813 5742 1 109.50000 418.400000
4763 15813 5744 1 109.50000 418.400000
4763 15813 9888 1 109.50000 418.400000
5742 15813 5744 1 109.50000 418.400000
5742 15813 9888 1 109.50000 418.400000
5744 15813 9888 1 109.50000 418.400000
2346 15814 4641 1 109.50000 418.400000
2346 15814 6227 1 109.50000 418.400000
2346 15814 7082 1 109.50000 418.400000
4641 15814 6227 1 109.50000 418.400000
4641 15814 7082 1 109.50000 418.400000
6227 15814 7082 1 109.50000 418.400000
1933 15815 10313 1 109.50000 418.400000
1933 15815 10721 1 109.50000 418.400000
1933 15815 10746 1 109.50000 418.400000
10313 15815 10721 1 109.50000 418.400000
10313 15815 10746 1 109.50000 418.400000
10721 15815 10746 1 109.50000 418.400000
309 15816 938 1 109.50000 418.400000
309 15816 11003 1 109.50000 418.400000
309 15816 11218 1 109.50000 418.400000
938 15816 11003 1 109.50000 418.400000
938 15816 11218 1 109.50000 418.400000
11003 15816 11218 1 109.50000 418.400000
964 15817 4784 1 109.50000 418.400000
964 15817 5898 1 109.50000 418.400000
964 15817 11043 1 109.50000 418.400000
4784 15817 5898 1 109.50000 418.400000
4784 15817 11043 1 109.50000 418.400000
5898 15817 11043 1 109.50000 418.400000
819 15818 6030 1 109.50000 418.400000
819 15818 9470 1 109.50000 418.400000
819 15818 10826 1 109.50000 418.400000
6030 15818 9470 1 109.50000 418.400000
6030 15818 10826 1 109.50000 418.400000
9470 15818 10826 1 109.50000 418.400000
2057 15819 4117 1 109.50000 418.400000
2057 15819 10343 1 109.50000 418.400000
2057 15819 10613 1 109.50000 418.400000
4117 15819 10343 1 109.50000 418.400000
4117 15819 10613 1 109.50000 418.400000
10343 15819 10613 1 109.50000 418.400000
8647 15820 10085 1 109.50000 418.400000
8647 15820 10303 1 109.50000 418.400000
8647 15820 11045 1 109.50000 418.400000
10085 15820 10303 1 109.50000 418.400000
10085 15820 11045 1 109.50000 418.400000
10303 15820 11045 1 109.50000 418.400000
4725 15821 7388 1 109.50000 418.400000
4725 15821 10070 1 109.50000 418.400000
4725 15821 10210 1 109.50000 418.400000
7388 15821 10070 1 109.50000 418.400000
7388 15821 10210 1 109.50000 418.400000
10070 15821 10210 1 109.50000 418.400000
5928 15822 7858 1 109.50000 418.400000
5928 15822 7896 1 109.50000 418.400000
5928 15822 8295 1 109.50000 418.400000
7858 15822 7896 1 109.50000 418.400000
7858 15822 8295 1 109.50000 418.400000
7896 15822 8295 1 109.50000 418.400000
6304 15823 10619 1 109.50000 418.400000
6304 15823 11046 1 109.50000 418.400000
6304 15823 11047 1 109.50000 418.400000
10619 15823 11046 1 109.50000 418.400000
10619 15823 11047 1 109.50000 418.400000
11046 15823 11047 1 109.50000 418.400000
1915 15824 6291 1 109.50000 418.400000
1915 15824 8446 1 109.50000 418.400000
1915 15824 10794 1 109.50000 418.400000
6291 15824 8446 1 109.50000 418.400000
6291 15824 10794 1 109.50000 418.400000
8446 15824 10794 1 109.50000 418.400000
9928 15825 10702 1 109.50000 418.400000
9928 15825 10745 1 109.50000 418.400000
9928 15825 11048 1 109.50000 418.400000
10702 15825 10745 1 109.50000 418.400000
10702 15825 11048 1 109.50000 418.400000
10745 15825 11048 1 109.50000 418.400000
3494 15826 5449 1 109.50000 418.400000
3494 15826 8321 1 109.50000 418.400000
3494 15826 11049 1 109.50000 418.400000
5449 15826 8321 1 109.50000 418.400000
5449 15826 11049 1 109.50000 418.400000
8321 15826 11049 1 109.50000 418.400000
1568 15827 2824 1 109.50000 418.400000
1568 15827 8451 1 109.50000 418.400000
1568 15827 8454 1 109.50000 418.400000
2824 15827 8451 1 109.50000 418.400000
2824 15827 8454 1 109.50000 418.400000
8451 15827 8454 1 109.50000 418.400000
1002 15828 2189 1 109.50000 418.400000
1002 15828 10799 1 109.50000 418.400000
1002 15828 11050 1 109.50000 418.400000
2189 15828 10799 1 109.50000 418.400000
2189 15828 11050 1 109.50000 418.400000
10799 15828 11050 1 109.50000 418.400000
2915 15829 7696 1 109.50000 418.400000
2915 15829 10529 1 109.50000 418.400000
2915 15829 10778 1 109.50000 418.400000
7696 15829 10529 1 109.50000 418.400000
7696 15829 10778 1 109.50000 418.400000
10529 15829 10778 1 109.50000 418.400000
3140 15830 6874 1 109.50000 418.400000
3140 15830 8903 1 109.50000 418.400000
3140 15830 9242 1 109.50000 418.400000
6874 15830 8903 1 109.50000 418.400000
6874 15830 9242 1 109.50000 418.400000
8903 15830 9242 1 109.50000 418.400000
8922 15831 9295 1 109.50000 418.400000
8922 15831 10273 1 109.50000 418.400000
8922 15831 10645 1 109.50000 418.400000
9295 15831 10273 1 109.50000 418.400000
9295 15831 10645 1 109.50000 418.400000
10273 15831 10645 1 109.50000 418.400000
791 15832 4491 1 109.50000 418.400000
791 15832 5413 1 109.50000 418.400000
791 15832 10230 1 109.50000 418.400000
4491 15832 5413 1 109.50000 418.400000
4491 15832 10230 1 109.50000 418.400000
5413 15832 10230 1 109.50000 418.400000
834 15833 1924 1 109.50000 418.400000
834 15833 8236 1 109.50000 418.400000
834 15833 10660 1 109.50000 418.400000
1924 15833 8236 1 109.50000 418.400000
1924 15833 10660 1 109.50000 418.400000
8236 15833 10660 1 109.50000 418.400000
7716 15834 8712 1 109.50000 418.400000
7716 15834 10553 1 109.50000 418.400000
7716 15834 11051 1 109.50000 418.400000
8712 15834 10553 1 109.50000 418.400000
8712 15834 11051 1 109.50000 418.400000
10553 15834 11051 1 109.50000 418.400000
4538 15835 5790 1 109.50000 418.400000
4538 15835 6640 1 109.50000 418.400000
4538 15835 8656 1 109.50000 418.400000
5790 15835 6640 1 109.50000 418.400000
5790 15835 8656 1 109.50000 418.400000
6640 15835 8656 1 109.50000 418.400000
95 15836 495 1 109.50000 418.400000
95 15836 4558 1 109.50000 418.400000
95 15836 9552 1 109.50000 418.400000
495 15836 4558 1 109.50000 418.400000
495 15836 9552 1 109.50000 418.400000
4558 15836 9552 1 109.50000 418.400000
2907 15837 2908 1 109.50000 418.400000
2907 15837 8540 1 109.50000 418.400000
2907 15837 10378 1 109.50000 418.400000
2908 15837 8540 1 109.50000 418.400000
2908 15837 10378 1 109.50000 418.400000
8540 15837 10378 1 109.50000 418.400000
4651 15838 10422 1 109.50000 418.400000
4651 15838 10760 1 109.50000 418.400000
4651 15838 11023 1 109.50000 418.400000
10422 15838 10760 1 109.50000 418.400000
10422 15838 11023 1 109.50000 418.400000
10760 15838 11023 1 109.50000 418.400000
10389 15839 10594 1 109.50000 418.400000
10389 15839 11020 1 109.50000 418.400000
10389 15839 11021 1 109.50000 418.400000
10594 15839 11020 1 109.50000 418.400000
10594 15839 11021 1 109.50000 418.400000
11020 15839 11021 1 109.50000 418.400000
4961 15840 10119 1 109.50000 418.400000
4961 15840 10306 1 109.50000 418.400000
4961 15840 11052 1 109.50000 418.400000
10119 15840 10306 1 109.50000 418.400000
10119 15840 11052 1 109.50000 418.400000
10306 15840 11052 1 109.50000 418.400000
2687 15841 4740 1 109.50000 418.400000
2687 15841 9745 1 109.50000 418.400000
2687 15841 11053 1 109.50000 418.400000
4740 15841 9745 1 109.50000 418.400000
4740 15841 11053 1 109.50000 418.400000
9745 15841 11053 1 109.50000 418.400000
4480 15842 4481 1 109.50000 418.400000
4480 15842 6824 1 109.50000 418.400000
4480 15842 11008 1 109.50000 418.400000
4481 15842 6824 1 109.50000 418.400000
4481 15842 11008 1 109.50000 418.400000
6824 15842 11008 1 109.50000 418.400000
5483 15843 8119 1 109.50000 418.400000
5483 15843 8947 1 109.50000 418.400000
5483 15843 9630 1 109.50000 418.400000
8119 15843 8947 1 109.50000 418.400000
8119 15843 9630 1 109.50000 418.400000
8947 15843 9630 1 109.50000 418.400000
7405 15844 9609 1 109.50000 418.400000
7405 15844 9610 1 109.50000 418.400000
7405 15844 9611 1 109.50000 418.400000
9609 15844 9610 1 109.50000 418.400000
9609 15844 9611 1 109.50000 418.400000
9610 15844 9611 1 109.50000 418.400000
104 15845 7826 1 109.50000 418.400000
104 15845 9079 1 109.50000 418.400000
104 15845 11056 1 109.50000 418.400000
7826 15845 9079 1 109.50000 418.400000
7826 15845 11056 1 109.50000 418.400000
9079 15845 11056 1 109.50000 418.400000
4423 15846 5226 1 109.50000 418.400000
4423 15846 5956 1 109.50000 418.400000
4423 15846 9872 1 109.50000 418.400000
5226 15846 5956 1 109.50000 418.400000
5226 15846 9872 1 109.50000 418.400000
5956 15846 9872 1 109.50000 418.400000
2456 15847 6621 1 109.50000 418.400000
2456 15847 8648 1 109.50000 418.400000
2456 15847 10357 1 109.50000 418.400000
6621 15847 8648 1 109.50000 418.400000
6621 15847 10357 1 109.50000 418.400000
8648 15847 10357 1 109.50000 418.400000
108 15848 170 1 109.50000 418.400000
108 15848 3078 1 109.50000 418.400000
108 15848 8065 1 109.50000 418.400000
170 15848 3078 1 109.50000 418.400000
170 15848 8065 1 109.50000 418.400000
3078 15848 8065 1 109.50000 418.400000
7761 15849 7829 1 109.50000 418.400000
7761 15849 8613 1 109.50000 418.400000
7761 15849 11038 1 109.50000 418.400000
7829 15849 8613 1 109.50000 418.400000
7829 15849 11038 1 109.50000 418.400000
8613 15849 11038 1 109.50000 418.400000
3194 15850 3196 1 109.50000 418.400000
3194 15850 8374 1 109.50000 418.400000
3194 15850 11037 1 109.50000 418.400000
3196 15850 8374 1 109.50000 418.400000
3196 15850 11037 1 109.50000 418.400000
8374 15850 11037 1 109.50000 418.400000
7869 15851 9450 1 109.50000 418.400000
7869 15851 10227 1 109.50000 418.400000
7869 15851 11006 1 109.50000 418.400000
9450 15851 10227 1 109.50000 418.400000
9450 15851 11006 1 109.50000 418.400000
10227 15851 11006 1 109.50000 418.400000
2929 15852 5227 1 109.50000 418.400000
2929 15852 9353 1 109.50000 418.400000
2929 15852 10190 1 109.50000 418.400000
5227 15852 9353 1 109.50000 418.400000
5227 15852 10190 1 109.50000 418.400000
9353 15852 10190 1 109.50000 418.400000
3321 15853 3718 1 109.50000 418.400000
3321 15853 10630 1 109.50000 418.400000
3321 15853 11057 1 109.50000 418.400000
3718 15853 10630 1 109.50000 418.400000
3718 15853 11057 1 109.50000 418.400000
10630 15853 11057 1 109.50000 418.400000
7095 15854 7670 1 109.50000 418.400000
7095 15854 9443 1 109.50000 418.400000
7095 15854 10722 1 109.50000 418.400000
7670 15854 9443 1 109.50000 418.400000
7670 15854 10722 1 109.50000 418.400000
9443 15854 10722 1 109.50000 418.400000
892 15855 8281 1 109.50000 418.400000
892 15855 10401 1 109.50000 418.400000
892 15855 11058 1 109.50000 418.400000
8281 15855 10401 1 109.50000 418.400000
8281 15855 11058 1 109.50000 418.400000
10401 15855 11058 1 109.50000 418.400000
4745 15856 8610 1 109.50000 418.400000
4745 15856 9692 1 109.50000 418.400000
4745 15856 10501 1 109.50000 418.400000
8610 15856 9692 1 109.50000 418.400000
8610 15856 10501 1 109.50000 418.400000
9692 15856 10501 1 109.50000 418.400000
2305 15857 8861 1 109.50000 418.400000
2305 15857 8970 1 109.50000 418.400000
2305 15857 11059 1 109.50000 418.400000
8861 15857 8970 1 109.50000 418.400000
8861 15857 11059 1 109.50000 418.400000
8970 15857 11059 1 109.50000 418.400000
7526 15858 9050 1 109.50000 418.400000
7526 15858 11060 1 109.50000 418.400000
7526 15858 11061 1 109.50000 418.400000
9050 15858 11060 1 109.50000 418.400000
9050 15858 11061 1 109.50000 418.400000
11060 15858 11061 1 109.50000 418.400000
1615 15859 3457 1 109.50000 418.400000
1615 15859 9099 1 109.50000 418.400000
1615 15859 10339 1 109.50000 418.400000
3457 15859 9099 1 109.50000 418.400000
3457 15859 10339 1 109.50000 418.400000
9099 15859 10339 1 109.50000 418.400000
3082 15860 7300 1 109.50000 418.400000
3082 15860 9941 1 109.50000 418.400000
3082 15860 11063 1 109.50000 418.400000
7300 15860 9941 1 109.50000 418.400000
7300 15860 11063 1 109.50000 418.400000
9941 15860 11063 1 109.50000 418.400000
3355 15861 5225 1 109.50000 418.400000
3355 15861 8226 1 109.50000 418.400000
3355 15861 10803 1 109.50000 418.400000
5225 15861 8226 1 109.50000 418.400000
5225 15861 10803 1 109.50000 418.400000
8226 15861 10803 1 109.50000 418.400000
7357 15862 8145 1 109.50000 418.400000
7357 15862 10354 1 109.50000 418.400000
7357 15862 10700 1 109.50000 418.400000
8145 15862 10354 1 109.50000 418.400000
8145 15862 10700 1 109.50000 418.400000
10354 15862 10700 1 109.50000 418.400000
3757 15863 8606 1 109.50000 418.400000
3757 15863 8691 1 109.50000 418.400000
3757 15863 10505 1 109.50000 418.400000
8606 15863 8691 1 109.50000 418.400000
8606 15863 10505 1 109.50000 418.400000
8691 15863 10505 1 109.50000 418.400000
2564 15864 3312 1 109.50000 418.400000
2564 15864 3684 1 109.50000 418.400000
2564 15864 8882 1 109.50000 418.400000
3312 15864 3684 1 109.50000 418.400000
3312 15864 8882 1 109.50000 418.400000
3684 15864 8882 1 109.50000 418.400000
2083 15865 2339 1 109.50000 418.400000
2083 15865 3316 1 109.50000 418.400000
2083 15865 11064 1 109.50000 418.400000
2339 15865 3316 1 109.50000 418.400000
2339 15865 11064 1 109.50000 418.400000
3316 15865 11064 1 109.50000 418.400000
489 15866 7798 1 109.50000 418.400000
489 15866 9610 1 109.50000 418.400000
489 15866 10642 1 109.50000 418.400000
7798 15866 9610 1 109.50000 418.400000
7798 15866 10642 1 109.50000 418.400000
9610 15866 10642 1 109.50000 418.400000
4373 15867 5576 1 109.50000 418.400000
4373 15867 7904 1 109.50000 418.400000
4373 15867 11065 1 109.50000 418.400000
5576 15867 7904 1 109.50000 418.400000
5576 15867 11065 1 109.50000 418.400000
7904 15867 11065 1 109.50000 418.400000
5195 15868 5503 1 109.50000 418.400000
5195 15868 9375 1 109.50000 418.400000
5195 15868 10561 1 109.50000 418.400000
5503 15868 9375 1 109.50000 418.400000
5503 15868 10561 1 109.50000 418.400000
9375 15868 10561 1 109.50000 418.400000
6571 15869 10073 1 109.50000 418.400000
6571 15869 10976 1 109.50000 418.400000
6571 15869 11066 1 109.50000 418.400000
10073 15869 10976 1 109.50000 418.400000
10073 15869 11066 1 109.50000 418.400000
10976 15869 11066 1 109.50000 418.400000
5680 15870 8147 1 109.50000 418.400000
5680 15870 9141 1 109.50000 418.400000
5680 15870 10524 1 109.50000 418.400000
8147 15870 9141 1 109.50000 418.400000
8147 15870 10524 1 109.50000 418.400000
9141 15870 10524 1 109.50000 418.400000
44 15871 807 1 109.50000 418.400000
44 15871 4858 1 109.50000 418.400000
44 15871 4988 1 109.50000 418.400000
807 15871 4858 1 109.50000 418.400000
807 15871 4988 1 109.50000 418.400000
4858 15871 4988 1 109.50000 418.400000
6059 15872 10041 1 109.50000 418.400000
6059 15872 10379 1 109.50000 418.400000
6059 15872 11068 1 109.50000 418.400000
10041 15872 10379 1 109.50000 418.400000
10041 15872 11068 1 109.50000 418.400000
10379 15872 11068 1 109.50000 418.400000
3529 15873 7111 1 109.50000 418.400000
3529 15873 8333 1 109.50000 418.400000
3529 15873 10682 1 109.50000 418.400000
7111 15873 8333 1 109.50000 418.400000
7111 15873 10682 1 109.50000 418.400000
8333 15873 10682 1 109.50000 418.400000
3406 15874 5580 1 109.50000 418.400000
3406 15874 6416 1 109.50000 418.400000
3406 15874 11070 1 109.50000 418.400000
5580 15874 6416 1 109.50000 418.400000
5580 15874 11070 1 109.50000 418.400000
6416 15874 11070 1 109.50000 418.400000
1092 15875 9907 1 109.50000 418.400000
1092 15875 10160 1 109.50000 418.400000
1092 15875 11071 1 109.50000 418.400000
9907 15875 10160 1 109.50000 418.400000
9907 15875 11071 1 109.50000 418.400000
10160 15875 11071 1 109.50000 418.400000
6863 15876 10933 1 109.50000 418.400000
6863 15876 11072 1 109.50000 418.400000
6863 15876 11073 1 109.50000 418.400000
10933 15876 11072 1 109.50000 418.400000
10933 15876 11073 1 109.50000 418.400000
11072 15876 11073 1 109.50000 418.400000
323 15877 2317 1 109.50000 418.400000
323 15877 5853 1 109.50000 418.400000
323 15877 11050 1 109.50000 418.400000
2317 15877 5853 1 109.50000 418.400000
2317 15877 11050 1 109.50000 418.400000
5853 15877 11050 1 109.50000 418.400000
8454 15878 10608 1 109.50000 418.400000
8454 15878 10943 1 109.50000 418.400000
8454 15878 10948 1 109.50000 418.400000
10608 15878 10943 1 109.50000 418.400000
10608 15878 10948 1 109.50000 418.400000
10943 15878 10948 1 109.50000 418.400000
4507 15879 7643 1 109.50000 418.400000
4507 15879 10095 1 109.50000 418.400000
4507 15879 10798 1 109.50000 418.400000
7643 15879 10095 1 109.50000 418.400000
7643 15879 10798 1 109.50000 418.400000
10095 15879 10798 1 109.50000 418.400000
833 15880 1720 1 109.50000 418.400000
833 15880 3848 1 109.50000 418.400000
833 15880 9624 1 109.50000 418.400000
1720 15880 3848 1 109.50000 418.400000
1720 15880 9624 1 109.50000 418.400000
3848 15880 9624 1 109.50000 418.400000
5544 15881 6401 1 109.50000 418.400000
5544 15881 7038 1 109.50000 418.400000
5544 15881 11074 1 109.50000 418.400000
6401 15881 7038 1 109.50000 418.400000
6401 15881 11074 1 109.50000 418.400000
7038 15881 11074 1 109.50000 418.400000
7982 15882 8934 1 109.50000 418.400000
7982 15882 9862 1 109.50000 418.400000
7982 15882 10429 1 109.50000 418.400000
8934 15882 9862 1 109.50000 418.400000
8934 15882 10429 1 109.50000 418.400000
9862 15882 10429 1 109.50000 418.400000
2522 15883 4681 1 109.50000 418.400000
2522 15883 7190 1 109.50000 418.400000
2522 15883 10717 1 109.50000 418.400000
4681 15883 7190 1 109.50000 418.400000
4681 15883 10717 1 109.50000 418.400000
7190 15883 10717 1 109.50000 418.400000
4106 15884 6040 1 109.50000 418.400000
4106 15884 9125 1 109.50000 418.400000
4106 15884 9126 1 109.50000 418.400000
6040 15884 9125 1 109.50000 418.400000
6040 15884 9126 1 109.50000 418.400000
9125 15884 9126 1 109.50000 418.400000
7802 15885 8130 1 109.50000 418.400000
7802 15885 9818 1 109.50000 418.400000
7802 15885 10968 1 109.50000 418.400000
8130 15885 9818 1 109.50000 418.400000
8130 15885 10968 1 109.50000 418.400000
9818 15885 10968 1 109.50000 418.400000
4748 15886 8538 1 109.50000 418.400000
4748 15886 9332 1 109.50000 418.400000
4748 15886 9863 1 109.50000 418.400000
8538 15886 9332 1 109.50000 418.400000
8538 15886 9863 1 109.50000 418.400000
9332 15886 9863 1 109.50000 418.400000
9064 15887 10861 1 109.50000 418.400000
9064 15887 10895 1 109.50000 418.400000
9064 15887 10975 1 109.50000 418.400000
10861 15887 10895 1 109.50000 418.400000
10861 15887 10975 1 109.50000 418.400000
10895 15887 10975 1 109.50000 418.400000
1257 15888 1577 1 109.50000 418.400000
1257 15888 8612 1 109.50000 418.400000
1257 15888 11076 1 109.50000 418.400000
1577 15888 8612 1 109.50000 418.400000
1577 15888 11076 1 109.50000 418.400000
8612 15888 11076 1 109.50000 418.400000
9139 15889 10411 1 109.50000 418.400000
9139 15889 10858 1 109.50000 418.400000
9139 15889 11075 1 109.50000 418.400000
10411 15889 10858 1 109.50000 418.400000
10411 15889 11075 1 109.50000 418.400000
10858 15889 11075 1 109.50000 418.400000
4074 15890 4313 1 109.50000 418.400000
4074 15890 4680 1 109.50000 418.400000
4074 15890 5906 1 109.50000 418.400000
4313 15890 4680 1 109.50000 418.400000
4313 15890 5906 1 109.50000 418.400000
4680 15890 5906 1 109.50000 418.400000
8228 15891 8812 1 109.50000 418.400000
8228 15891 10528 1 109.50000 418.400000
8228 15891 11028 1 109.50000 418.400000
8812 15891 10528 1 109.50000 418.400000
8812 15891 11028 1 109.50000 418.400000
10528 15891 11028 1 109.50000 418.400000
2355 15892 4004 1 109.50000 418.400000
2355 15892 9117 1 109.50000 418.400000
2355 15892 9285 1 109.50000 418.400000
4004 15892 9117 1 109.50000 418.400000
4004 15892 9285 1 109.50000 418.400000
9117 15892 9285 1 109.50000 418.400000
7536 15893 9106 1 109.50000 418.400000
7536 15893 10279 1 109.50000 418.400000
7536 15893 10310 1 109.50000 418.400000
9106 15893 10279 1 109.50000 418.400000
9106 15893 10310 1 109.50000 418.400000
10279 15893 10310 1 109.50000 418.400000
912 15894 2798 1 109.50000 418.400000
912 15894 6520 1 109.50000 418.400000
912 15894 11000 1 109.50000 418.400000
2798 15894 6520 1 109.50000 418.400000
2798 15894 11000 1 109.50000 418.400000
6520 15894 11000 1 109.50000 418.400000
3007 15895 5512 1 109.50000 418.400000
3007 15895 7916 1 109.50000 418.400000
3007 15895 11077 1 109.50000 418.400000
5512 15895 7916 1 109.50000 418.400000
5512 15895 11077 1 109.50000 418.400000
7916 15895 11077 1 109.50000 418.400000
1758 15896 5737 1 109.50000 418.400000
1758 15896 8731 1 109.50000 418.400000
1758 15896 9623 1 109.50000 418.400000
5737 15896 8731 1 109.50000 418.400000
5737 15896 9623 1 109.50000 418.400000
8731 15896 9623 1 109.50000 418.400000
3841 15897 7004 1 109.50000 418.400000
3841 15897 10904 1 109.50000 418.400000
3841 15897 10994 1 109.50000 418.400000
7004 15897 10904 1 109.50000 418.400000
7004 15897 10994 1 109.50000 418.400000
10904 15897 10994 1 109.50000 418.400000
365 15898 556 1 109.50000 418.400000
365 15898 1992 1 109.50000 418.400000
365 15898 10840 1 109.50000 418.400000
556 15898 1992 1 109.50000 418.400000
556 15898 10840 1 109.50000 418.400000
1992 15898 10840 1 109.50000 418.400000
6353 15899 8303 1 109.50000 418.400000
6353 15899 8809 1 109.50000 418.400000
6353 15899 10807 1 109.50000 418.400000
8303 15899 8809 1 109.50000 418.400000
8303 15899 10807 1 109.50000 418.400000
8809 15899 10807 1 109.50000 418.400000
3107 15900 8975 1 109.50000 418.400000
3107 15900 10194 1 109.50000 418.400000
3107 15900 10195 1 109.50000 418.400000
8975 15900 10194 1 109.50000 418.400000
8975 15900 10195 1 109.50000 418.400000
10194 15900 10195 1 109.50000 418.400000
2318 15901 3731 1 109.50000 418.400000
2318 15901 9396 1 109.50000 418.400000
2318 15901 10987 1 109.50000 418.400000
3731 15901 9396 1 109.50000 418.400000
3731 15901 10987 1 109.50000 418.400000
9396 15901 10987 1 109.50000 418.400000
5536 15902 9566 1 109.50000 418.400000
5536 15902 10918 1 109.50000 418.400000
5536 15902 11035 1 109.50000 418.400000
9566 15902 10918 1 109.50000 418.400000
9566 15902 11035 1 109.50000 418.400000
10918 15902 11035 1 109.50000 418.400000
8817 15903 9689 1 109.50000 418.400000
8817 15903 9890 1 109.50000 418.400000
8817 15903 10935 1 109.50000 418.400000
9689 15903 9890 1 109.50000 418.400000
9689 15903 10935 1 109.50000 418.400000
9890 15903 10935 1 109.50000 418.400000
7471 15904 8124 1 109.50000 418.400000
7471 15904 9317 1 109.50000 418.400000
7471 15904 10096 1 109.50000 418.400000
8124 15904 9317 1 109.50000 418.400000
8124 15904 10096 1 109.50000 418.400000
9317 15904 10096 1 109.50000 418.400000
4337 15905 11071 1 109.50000 418.400000
4337 15905 11079 1 109.50000 418.400000
4337 15905 11080 1 109.50000 418.400000
11071 15905 11079 1 109.50000 418.400000
11071 15905 11080 1 109.50000 418.400000
11079 15905 11080 1 109.50000 418.400000
5701 15906 7692 1 109.50000 418.400000
5701 15906 9217 1 109.50000 418.400000
5701 15906 9917 1 109.50000 418.400000
7692 15906 9217 1 109.50000 418.400000
7692 15906 9917 1 109.50000 418.400000
9217 15906 9917 1 109.50000 418.400000
2457 15907 2708 1 109.50000 418.400000
2457 15907 4603 1 109.50000 418.400000
2457 15907 11081 1 109.50000 418.400000
2708 15907 4603 1 109.50000 418.400000
2708 15907 11081 1 109.50000 418.400000
4603 15907 11081 1 109.50000 418.400000
2437 15908 3256 1 109.50000 418.400000
2437 15908 9826 1 109.50000 418.400000
2437 15908 10005 1 109.50000 418.400000
3256 15908 9826 1 109.50000 418.400000
3256 15908 10005 1 109.50000 418.400000
9826 15908 10005 1 109.50000 418.400000
5116 15909 9651 1 109.50000 418.400000
5116 15909 9700 1 109.50000 418.400000
5116 15909 11077 1 109.50000 418.400000
9651 15909 9700 1 109.50000 418.400000
9651 15909 11077 1 109.50000 418.400000
9700 15909 11077 1 109.50000 418.400000
4940 15910 4942 1 109.50000 418.400000
4940 15910 8358 1 109.50000 418.400000
4940 15910 10481 1 109.50000 418.400000
4942 15910 8358 1 109.50000 418.400000
4942 15910 10481 1 109.50000 418.400000
8358 15910 10481 1 109.50000 418.400000
4045 15911 5614 1 109.50000 418.400000
4045 15911 10595 1 109.50000 418.400000
4045 15911 11082 1 109.50000 418.400000
5614 15911 10595 1 109.50000 418.400000
5614 15911 11082 1 109.50000 418.400000
10595 15911 11082 1 109.50000 418.400000
5691 15912 7796 1 109.50000 418.400000
5691 15912 9382 1 109.50000 418.400000
5691 15912 11080 1 109.50000 418.400000
7796 15912 9382 1 109.50000 418.400000
7796 15912 11080 1 109.50000 418.400000
9382 15912 11080 1 109.50000 418.400000
5282 15913 5376 1 109.50000 418.400000
5282 15913 8870 1 109.50000 418.400000
5282 15913 10216 1 109.50000 418.400000
5376 15913 8870 1 109.50000 418.400000
5376 15913 10216 1 109.50000 418.400000
8870 15913 10216 1 109.50000 418.400000
812 15914 5064 1 109.50000 418.400000
812 15914 8201 1 109.50000 418.400000
812 15914 10017 1 109.50000 418.400000
5064 15914 8201 1 109.50000 418.400000
5064 15914 10017 1 109.50000 418.400000
8201 15914 10017 1 109.50000 418.400000
3640 15915 9376 1 109.50000 418.400000
3640 15915 10913 1 109.50000 418.400000
3640 15915 10920 1 109.50000 418.400000
9376 15915 10913 1 109.50000 418.400000
9376 15915 10920 1 109.50000 418.400000
10913 15915 10920 1 109.50000 418.400000
1797 15916 5186 1 109.50000 418.400000
1797 15916 6339 1 109.50000 418.400000
1797 15916 10846 1 109.50000 418.400000
5186 15916 6339 1 109.50000 418.400000
5186 15916 10846 1 109.50000 418.400000
6339 15916 10846 1 109.50000 418.400000
1127 15917 7880 1 109.50000 418.400000
1127 15917 9660 1 109.50000 418.400000
1127 15917 11083 1 109.50000 418.400000
7880 15917 9660 1 109.50000 418.400000
7880 15917 11083 1 109.50000 418.400000
9660 15917 11083 1 109.50000 418.400000
731 15918 6766 1 109.50000 418.400000
731 15918 10228 1 109.50000 418.400000
731 15918 10568 1 109.50000 418.400000
6766 15918 10228 1 109.50000 418.400000
6766 15918 10568 1 109.50000 418.400000
10228 15918 10568 1 109.50000 418.400000
235 15919 842 1 109.50000 418.400000
235 15919 9780 1 109.50000 418.400000
235 15919 10691 1 109.50000 418.400000
842 15919 9780 1 109.50000 418.400000
842 15919 10691 1 109.50000 418.400000
9780 15919 10691 1 109.50000 418.400000
1384 15920 4385 1 109.50000 418.400000
1384 15920 5213 1 109.50000 418.400000
1384 15920 6280 1 109.50000 418.400000
4385 15920 5213 1 109.50000 418.400000
4385 15920 6280 1 109.50000 418.400000
5213 15920 6280 1 109.50000 418.400000
4969 15921 8335 1 109.50000 418.400000
4969 15921 9962 1 109.50000 418.400000
4969 15921 10653 1 109.50000 418.400000
8335 15921 9962 1 109.50000 418.400000
8335 15921 10653 1 109.50000 418.400000
9962 15921 10653 1 109.50000 418.400000
6046 15922 6381 1 109.50000 418.400000
6046 15922 9612 1 109.50000 418.400000
6046 15922 10696 1 109.50000 418.400000
6381 15922 9612 1 109.50000 418.400000
6381 15922 10696 1 109.50000 418.400000
9612 15922 10696 1 109.50000 418.400000
1230 15923 8864 1 109.50000 418.400000
1230 15923 11025 1 109.50000 418.400000
1230 15923 11045 1 109.50000 418.400000
8864 15923 11025 1 109.50000 418.400000
8864 15923 11045 1 109.50000 418.400000
11025 15923 11045 1 109.50000 418.400000
1531 15924 2481 1 109.50000 418.400000
1531 15924 8352 1 109.50000 418.400000
1531 15924 9342 1 109.50000 418.400000
2481 15924 8352 1 109.50000 418.400000
2481 15924 9342 1 109.50000 418.400000
8352 15924 9342 1 109.50000 418.400000
6992 15925 7845 1 109.50000 418.400000
6992 15925 8420 1 109.50000 418.400000
6992 15925 11084 1 109.50000 418.400000
7845 15925 8420 1 109.50000 418.400000
7845 15925 11084 1 109.50000 418.400000
8420 15925 11084 1 109.50000 418.400000
3410 15926 8170 1 109.50000 418.400000
3410 15926 8346 1 109.50000 418.400000
3410 15926 9626 1 109.50000 418.400000
8170 15926 8346 1 109.50000 418.400000
8170 15926 9626 1 109.50000 418.400000
8346 15926 9626 1 109.50000 418.400000
7244 15927 7464 1 109.50000 418.400000
7244 15927 8015 1 109.50000 418.400000
7244 15927 11085 1 109.50000 418.400000
7464 15927 8015 1 109.50000 418.400000
7464 15927 11085 1 109.50000 418.400000
8015 15927 11085 1 109.50000 418.400000
8166 15928 8434 1 109.50000 418.400000
8166 15928 8436 1 109.50000 418.400000
8166 15928 9790 1 109.50000 418.400000
8434 15928 8436 1 109.50000 418.400000
8434 15928 9790 1 109.50000 418.400000
8436 15928 9790 1 109.50000 418.400000
368 15929 369 1 109.50000 418.400000
368 15929 370 1 109.50000 418.400000
368 15929 9982 1 109.50000 418.400000
369 15929 370 1 109.50000 418.400000
369 15929 9982 1 109.50000 418.400000
370 15929 9982 1 109.50000 418.400000
1901 15930 5626 1 109.50000 418.400000
1901 15930 9931 1 109.50000 418.400000
1901 15930 10294 1 109.50000 418.400000
5626 15930 9931 1 109.50000 418.400000
5626 15930 10294 1 109.50000 418.400000
9931 15930 10294 1 109.50000 418.400000
4160 15931 4215 1 109.50000 418.400000
4160 15931 10057 1 109.50000 418.400000
4160 15931 11086 1 109.50000 418.400000
4215 15931 10057 1 109.50000 418.400000
4215 15931 11086 1 109.50000 418.400000
10057 15931 11086 1 109.50000 418.400000
1095 15932 4802 1 109.50000 418.400000
1095 15932 10726 1 109.50000 418.400000
1095 15932 10937 1 109.50000 418.400000
4802 15932 10726 1 109.50000 418.400000
4802 15932 10937 1 109.50000 418.400000
10726 15932 10937 1 109.50000 418.400000
6177 15933 8820 1 109.50000 418.400000
6177 15933 10026 1 109.50000 418.400000
6177 15933 11087 1 109.50000 418.400000
8820 15933 10026 1 109.50000 418.400000
8820 15933 11087 1 109.50000 418.400000
10026 15933 11087 1 109.50000 418.400000
5943 15934 7934 1 109.50000 418.400000
5943 15934 9268 1 109.50000 418.400000
5943 15934 9408 1 109.50000 418.400000
7934 15934 9268 1 109.50000 418.400000
7934 15934 9408 1 109.50000 418.400000
9268 15934 9408 1 109.50000 418.400000
2610 15935 4204 1 109.50000 418.400000
2610 15935 6245 1 109.50000 418.400000
2610 15935 9411 1 109.50000 418.400000
4204 15935 6245 1 109.50000 418.400000
4204 15935 9411 1 109.50000 418.400000
6245 15935 9411 1 109.50000 418.400000
3854 15936 5842 1 109.50000 418.400000
3854 15936 10170 1 109.50000 418.400000
3854 15936 10285 1 109.50000 418.400000
5842 15936 10170 1 109.50000 418.400000
5842 15936 10285 1 109.50000 418.400000
10170 15936 10285 1 109.50000 418.400000
4208 15937 8473 1 109.50000 418.400000
4208 15937 9009 1 109.50000 418.400000
4208 15937 10424 1 109.50000 418.400000
8473 15937 9009 1 109.50000 418.400000
8473 15937 10424 1 109.50000 418.400000
9009 15937 10424 1 109.50000 418.400000
7882 15938 10620 1 109.50000 418.400000
7882 15938 10851 1 109.50000 418.400000
7882 15938 11088 1 109.50000 418.400000
10620 15938 10851 1 109.50000 418.400000
10620 15938 11088 1 109.50000 418.400000
10851 15938 11088 1 109.50000 418.400000
3580 15939 7041 1 109.50000 418.400000
3580 15939 9959 1 109.50000 418.400000
3580 15939 10941 1 109.50000 418.400000
7041 15939 9959 1 109.50000 418.400000
7041 15939 10941 1 109.50000 418.400000
9959 15939 10941 1 109.50000 418.400000
9857 15940 10719 1 109.50000 418.400000
9857 15940 11089 1 109.50000 418.400000
9857 15940 11090 1 109.50000 418.400000
10719 15940 11089 1 109.50000 418.400000
10719 15940 11090 1 109.50000 418.400000
11089 15940 11090 1 109.50000 418.400000
1215 15941 3499 1 109.50000 418.400000
1215 15941 9825 1 109.50000 418.400000
1215 15941 11091 1 109.50000 418.400000
3499 15941 9825 1 109.50000 418.400000
3499 15941 11091 1 109.50000 418.400000
9825 15941 11091 1 109.50000 418.400000
1843 15942 5477 1 109.50000 418.400000
1843 15942 10823 1 109.50000 418.400000
1843 15942 11051 1 109.50000 418.400000
5477 15942 10823 1 109.50000 418.400000
5477 15942 11051 1 109.50000 418.400000
10823 15942 11051 1 109.50000 418.400000
2279 15943 3225 1 109.50000 418.400000
2279 15943 6345 1 109.50000 418.400000
2279 15943 9291 1 109.50000 418.400000
3225 15943 6345 1 109.50000 418.400000
3225 15943 9291 1 109.50000 418.400000
6345 15943 9291 1 109.50000 418.400000
4029 15944 7771 1 109.50000 418.400000
4029 15944 8373 1 109.50000 418.400000
4029 15944 10415 1 109.50000 418.400000
7771 15944 8373 1 109.50000 418.400000
7771 15944 10415 1 109.50000 418.400000
8373 15944 10415 1 109.50000 418.400000
735 15945 3185 1 109.50000 418.400000
735 15945 10191 1 109.50000 418.400000
735 15945 10393 1 109.50000 418.400000
3185 15945 10191 1 109.50000 418.400000
3185 15945 10393 1 109.50000 418.400000
10191 15945 10393 1 109.50000 418.400000
4668 15946 6117 1 109.50000 418.400000
4668 15946 9254 1 109.50000 418.400000
4668 15946 10898 1 109.50000 418.400000
6117 15946 9254 1 109.50000 418.400000
6117 15946 10898 1 109.50000 418.400000
9254 15946 10898 1 109.50000 418.400000
466 15947 6821 1 109.50000 418.400000
466 15947 8167 1 109.50000 418.400000
466 15947 11061 1 109.50000 418.400000
6821 15947 8167 1 109.50000 418.400000
6821 15947 11061 1 109.50000 418.400000
8167 15947 11061 1 109.50000 418.400000
1750 15948 10502 1 109.50000 418.400000
1750 15948 10574 1 109.50000 418.400000
1750 15948 10583 1 109.50000 418.400000
10502 15948 10574 1 109.50000 418.400000
10502 15948 10583 1 109.50000 418.400000
10574 15948 10583 1 109.50000 418.400000
2300 15949 7197 1 109.50000 418.400000
2300 15949 8846 1 109.50000 418.400000
2300 15949 11093 1 109.50000 418.400000
7197 15949 8846 1 109.50000 418.400000
7197 15949 11093 1 109.50000 418.400000
8846 15949 11093 1 109.50000 418.400000
412 15950 1026 1 109.50000 418.400000
412 15950 2829 1 109.50000 418.400000
412 15950 5278 1 109.50000 418.400000
1026 15950 2829 1 109.50000 418.400000
1026 15950 5278 1 109.50000 418.400000
2829 15950 5278 1 109.50000 418.400000
3052 15951 7671 1 109.50000 418.400000
3052 15951 7672 1 109.50000 418.400000
3052 15951 10366 1 109.50000 418.400000
7671 15951 7672 1 109.50000 418.400000
7671 15951 10366 1 109.50000 418.400000
7672 15951 10366 1 109.50000 418.400000
2678 15952 4864 1 109.50000 418.400000
2678 15952 8945 1 109.50000 418.400000
2678 15952 10445 1 109.50000 418.400000
4864 15952 8945 1 109.50000 418.400000
4864 15952 10445 1 109.50000 418.400000
8945 15952 10445 1 109.50000 418.400000
1227 15953 1319 1 109.50000 418.400000
1227 15953 3083 1 109.50000 418.400000
1227 15953 3653 1 109.50000 418.400000
1319 15953 3083 1 109.50000 418.400000
1319 15953 3653 1 109.50000 418.400000
3083 15953 3653 1 109.50000 418.400000
928 15954 1014 1 109.50000 418.400000
928 15954 5720 1 109.50000 418.400000
928 15954 10198 1 109.50000 418.400000
1014 15954 5720 1 109.50000 418.400000
1014 15954 10198 1 109.50000 418.400000
5720 15954 10198 1 109.50000 418.400000
6095 15955 8537 1 109.50000 418.400000
6095 15955 8854 1 109.50000 418.400000
6095 15955 9096 1 109.50000 418.400000
8537 15955 8854 1 109.50000 418.400000
8537 15955 9096 1 109.50000 418.400000
8854 15955 9096 1 109.50000 418.400000
4607 15956 6525 1 109.50000 418.400000
4607 15956 8280 1 109.50000 418.400000
4607 15956 9313 1 109.50000 418.400000
6525 15956 8280 1 109.50000 418.400000
6525 15956 9313 1 109.50000 418.400000
8280 15956 9313 1 109.50000 418.400000
6782 15957 7105 1 109.50000 418.400000
6782 15957 9420 1 109.50000 418.400000
6782 15957 10249 1 109.50000 418.400000
7105 15957 9420 1 109.50000 418.400000
7105 15957 10249 1 109.50000 418.400000
9420 15957 10249 1 109.50000 418.400000
5417 15958 7568 1 109.50000 418.400000
5417 15958 9505 1 109.50000 418.400000
5417 15958 10795 1 109.50000 418.400000
7568 15958 9505 1 109.50000 418.400000
7568 15958 10795 1 109.50000 418.400000
9505 15958 10795 1 109.50000 418.400000
9399 15959 10762 1 109.50000 418.400000
9399 15959 10818 1 109.50000 418.400000
9399 15959 10979 1 109.50000 418.400000
10762 15959 10818 1 109.50000 418.400000
10762 15959 10979 1 109.50000 418.400000
10818 15959 10979 1 109.50000 418.400000
3658 15960 5167 1 109.50000 418.400000
3658 15960 6505 1 109.50000 418.400000
3658 15960 8860 1 109.50000 418.400000
5167 15960 6505 1 109.50000 418.400000
5167 15960 8860 1 109.50000 418.400000
6505 15960 8860 1 109.50000 418.400000
1631 15961 1633 1 109.50000 418.400000
1631 15961 2956 1 109.50000 418.400000
1631 15961 11057 1 109.50000 418.400000
1633 15961 2956 1 109.50000 418.400000
1633 15961 11057 1 109.50000 418.400000
2956 15961 11057 1 109.50000 418.400000
2462 15962 8028 1 109.50000 418.400000
2462 15962 8308 1 109.50000 418.400000
2462 15962 10330 1 109.50000 418.400000
8028 15962 8308 1 109.50000 418.400000
8028 15962 10330 1 109.50000 418.400000
8308 15962 10330 1 109.50000 418.400000
2461 15963 8205 1 109.50000 418.400000
2461 15963 10562 1 109.50000 418.400000
2461 15963 11094 1 109.50000 418.400000
8205 15963 10562 1 109.50000 418.400000
8205 15963 11094 1 109.50000 418.400000
10562 15963 11094 1 109.50000 418.400000
1696 15964 2144 1 109.50000 418.400000
1696 15964 9002 1 109.50000 418.400000
1696 15964 9181 1 109.50000 418.400000
2144 15964 9002 1 109.50000 418.400000
2144 15964 9181 1 109.50000 418.400000
9002 15964 9181 1 109.50000 418.400000
3784 15965 7442 1 109.50000 418.400000
3784 15965 10533 1 109.50000 418.400000
3784 15965 10572 1 109.50000 418.400000
7442 15965 10533 1 109.50000 418.400000
7442 15965 10572 1 109.50000 418.400000
10533 15965 10572 1 109.50000 418.400000
4404 15966 5045 1 109.50000 418.400000
4404 15966 6021 1 109.50000 418.400000
4404 15966 10646 1 109.50000 418.400000
5045 15966 6021 1 109.50000 418.400000
5045 15966 10646 1 109.50000 418.400000
6021 15966 10646 1 109.50000 418.400000
6801 15967 7522 1 109.50000 418.400000
6801 15967 8845 1 109.50000 418.400000
6801 15967 10901 1 109.50000 418.400000
7522 15967 8845 1 109.50000 418.400000
7522 15967 10901 1 109.50000 418.400000
8845 15967 10901 1 109.50000 418.400000
544 15968 9461 1 109.50000 418.400000
544 15968 10877 1 109.50000 418.400000
544 15968 11002 1 109.50000 418.400000
9461 15968 10877 1 109.50000 418.400000
9461 15968 11002 1 109.50000 418.400000
10877 15968 11002 1 109.50000 418.400000
1190 15969 9058 1 109.50000 418.400000
1190 15969 10589 1 109.50000 418.400000
1190 15969 10983 1 109.50000 418.400000
9058 15969 10589 1 109.50000 418.400000
9058 15969 10983 1 109.50000 418.400000
10589 15969 10983 1 109.50000 418.400000
6182 15970 6886 1 109.50000 418.400000
6182 15970 10288 1 109.50000 418.400000
6182 15970 10791 1 109.50000 418.400000
6886 15970 10288 1 109.50000 418.400000
6886 15970 10791 1 109.50000 418.400000
10288 15970 10791 1 109.50000 418.400000
7229 15971 7784 1 109.50000 418.400000
7229 15971 9589 1 109.50000 418.400000
7229 15971 11095 1 109.50000 418.400000
7784 15971 9589 1 109.50000 418.400000
7784 15971 11095 1 109.50000 418.400000
9589 15971 11095 1 109.50000 418.400000
2384 15972 9588 1 109.50000 418.400000
2384 15972 10580 1 109.50000 418.400000
2384 15972 11086 1 109.50000 418.400000
9588 15972 10580 1 109.50000 418.400000
9588 15972 11086 1 109.50000 418.400000
10580 15972 11086 1 109.50000 418.400000
2104 15973 5823 1 109.50000 418.400000
2104 15973 8139 1 109.50000 418.400000
2104 15973 9831 1 109.50000 418.400000
5823 15973 8139 1 109.50000 418.400000
5823 15973 9831 1 109.50000 418.400000
8139 15973 9831 1 109.50000 418.400000
2157 15974 2435 1 109.50000 418.400000
2157 15974 3800 1 109.50000 418.400000
2157 15974 5721 1 109.50000 418.400000
2435 15974 3800 1 109.50000 418.400000
2435 15974 5721 1 109.50000 418.400000
3800 15974 5721 1 109.50000 418.400000
6567 15975 9576 1 109.50000 418.400000
6567 15975 10603 1 109.50000 418.400000
6567 15975 11172 1 109.50000 418.400000
9576 15975 10603 1 109.50000 418.400000
9576 15975 11172 1 109.50000 418.400000
10603 15975 11172 1 109.50000 418.400000
2868 15976 4881 1 109.50000 418.400000
2868 15976 5560 1 109.50000 418.400000
2868 15976 7631 1 109.50000 418.400000
4881 15976 5560 1 109.50000 418.400000
4881 15976 7631 1 109.50000 418.400000
5560 15976 7631 1 109.50000 418.400000
1355 15977 7690 1 109.50000 418.400000
1355 15977 8314 1 109.50000 418.400000
1355 15977 11096 1 109.50000 418.400000
7690 15977 8314 1 109.50000 418.400000
7690 15977 11096 1 109.50000 418.400000
8314 15977 11096 1 109.50000 418.400000
1165 15978 3860 1 109.50000 418.400000
1165 15978 9135 1 109.50000 418.400000
1165 15978 10637 1 109.50000 418.400000
3860 15978 9135 1 109.50000 418.400000
3860 15978 10637 1 109.50000 418.400000
9135 15978 10637 1 109.50000 418.400000
8311 15979 9474 1 109.50000 418.400000
8311 15979 10990 1 109.50000 418.400000
8311 15979 11011 1 109.50000 418.400000
9474 15979 10990 1 109.50000 418.400000
9474 15979 11011 1 109.50000 418.400000
10990 15979 11011 1 109.50000 418.400000
6748 15980 6775 1 109.50000 418.400000
6748 15980 8432 1 109.50000 418.400000
6748 15980 9231 1 109.50000 418.400000
6775 15980 8432 1 109.50000 418.400000
6775 15980 9231 1 109.50000 418.400000
8432 15980 9231 1 109.50000 418.400000
590 15981 3761 1 109.50000 418.400000
590 15981 8966 1 109.50000 418.400000
590 15981 10235 1 109.50000 418.400000
3761 15981 8966 1 109.50000 418.400000
3761 15981 10235 1 109.50000 418.400000
8966 15981 10235 1 109.50000 418.400000
72 15982 5126 1 109.50000 418.400000
72 15982 8720 1 109.50000 418.400000
72 15982 11034 1 109.50000 418.400000
5126 15982 8720 1 109.50000 418.400000
5126 15982 11034 1 109.50000 418.400000
8720 15982 11034 1 109.50000 418.400000
3362 15983 6823 1 109.50000 418.400000
3362 15983 8429 1 109.50000 418.400000
3362 15983 8431 1 109.50000 418.400000
6823 15983 8429 1 109.50000 418.400000
6823 15983 8431 1 109.50000 418.400000
8429 15983 8431 1 109.50000 418.400000
3576 15984 4257 1 109.50000 418.400000
3576 15984 6043 1 109.50000 418.400000
3576 15984 10845 1 109.50000 418.400000
4257 15984 6043 1 109.50000 418.400000
4257 15984 10845 1 109.50000 418.400000
6043 15984 10845 1 109.50000 418.400000
2155 15985 7531 1 109.50000 418.400000
2155 15985 7592 1 109.50000 418.400000
2155 15985 10615 1 109.50000 418.400000
7531 15985 7592 1 109.50000 418.400000
7531 15985 10615 1 109.50000 418.400000
7592 15985 10615 1 109.50000 418.400000
4682 15986 6393 1 109.50000 418.400000
4682 15986 6866 1 109.50000 418.400000
4682 15986 10754 1 109.50000 418.400000
6393 15986 6866 1 109.50000 418.400000
6393 15986 10754 1 109.50000 418.400000
6866 15986 10754 1 109.50000 418.400000
4718 15987 6260 1 109.50000 418.400000
4718 15987 6805 1 109.50000 418.400000
4718 15987 10922 1 109.50000 418.400000
6260 15987 6805 1 109.50000 418.400000
6260 15987 10922 1 109.50000 418.400000
6805 15987 10922 1 109.50000 418.400000
1442 15988 8676 1 109.50000 418.400000
1442 15988 10967 1 109.50000 418.400000
1442 15988 10997 1 109.50000 418.400000
8676 15988 10967 1 109.50000 418.400000
8676 15988 10997 1 109.50000 418.400000
10967 15988 10997 1 109.50000 418.400000
3066 15989 5551 1 109.50000 418.400000
3066 15989 8013 1 109.50000 418.400000
3066 15989 9808 1 109.50000 418.400000
5551 15989 8013 1 109.50000 418.400000
5551 15989 9808 1 109.50000 418.400000
8013 15989 9808 1 109.50000 418.400000
7338 15990 8532 1 109.50000 418.400000
7338 15990 9895 1 109.50000 418.400000
7338 15990 11098 1 109.50000 418.400000
8532 15990 9895 1 109.50000 418.400000
8532 15990 11098 1 109.50000 418.400000
9895 15990 11098 1 109.50000 418.400000
525 15991 969 1 109.50000 418.400000
525 15991 5525 1 109.50000 418.400000
525 15991 6559 1 109.50000 418.400000
969 15991 5525 1 109.50000 418.400000
969 15991 6559 1 109.50000 418.400000
5525 15991 6559 1 109.50000 418.400000
5012 15992 5013 1 109.50000 418.400000
5012 15992 7621 1 109.50000 418.400000
5012 15992 7828 1 109.50000 418.400000
5013 15992 7621 1 109.50000 418.400000
5013 15992 7828 1 109.50000 418.400000
7621 15992 7828 1 109.50000 418.400000
7192 15993 8326 1 109.50000 418.400000
7192 15993 10650 1 109.50000 418.400000
7192 15993 10716 1 109.50000 418.400000
8326 15993 10650 1 109.50000 418.400000
8326 15993 10716 1 109.50000 418.400000
10650 15993 10716 1 109.50000 418.400000
2950 15994 5643 1 109.50000 418.400000
2950 15994 10980 1 109.50000 418.400000
2950 15994 10981 1 109.50000 418.400000
5643 15994 10980 1 109.50000 418.400000
5643 15994 10981 1 109.50000 418.400000
10980 15994 10981 1 109.50000 418.400000
2694 15995 7097 1 109.50000 418.400000
2694 15995 9966 1 109.50000 418.400000
2694 15995 11041 1 109.50000 418.400000
7097 15995 9966 1 109.50000 418.400000
7097 15995 11041 1 109.50000 418.400000
9966 15995 11041 1 109.50000 418.400000
862 15996 1274 1 109.50000 418.400000
862 15996 1914 1 109.50000 418.400000
862 15996 10577 1 109.50000 418.400000
1274 15996 1914 1 109.50000 418.400000
1274 15996 10577 1 109.50000 418.400000
1914 15996 10577 1 109.50000 418.400000
1780 15997 3555 1 109.50000 418.400000
1780 15997 8772 1 109.50000 418.400000
1780 15997 8940 1 109.50000 418.400000
3555 15997 8772 1 109.50000 418.400000
3555 15997 8940 1 109.50000 418.400000
8772 15997 8940 1 109.50000 418.400000
1348 15998 1459 1 109.50000 418.400000
1348 15998 4992 1 109.50000 418.400000
1348 15998 8734 1 109.50000 418.400000
1459 15998 4992 1 109.50000 418.400000
1459 15998 8734 1 109.50000 418.400000
4992 15998 8734 1 109.50000 418.400000
4911 15999 4948 1 109.50000 418.400000
4911 15999 6213 1 109.50000 418.400000
4911 15999 7216 1 109.50000 418.400000
4948 15999 6213 1 109.50000 418.400000
4948 15999 7216 1 109.50000 418.400000
6213 15999 7216 1 109.50000 418.400000
3353 16000 10075 1 109.50000 418.400000
3353 16000 10974 1 109.50000 418.400000
3353 16000 11215 1 109.50000 418.400000
10075 16000 10974 1 109.50000 418.400000
10075 16000 11215 1 109.50000 418.400000
10974 16000 11215 1 109.50000 418.400000
1562 16001 7902 1 109.50000 418.400000
1562 16001 8187 1 109.50000 418.400000
1562 16001 11099 1 109.50000 418.400000
7902 16001 8187 1 109.50000 418.400000
7902 16001 11099 1 109.50000 418.400000
8187 16001 11099 1 109.50000 418.400000
212 16002 1875 1 109.50000 418.400000
212 16002 10098 1 109.50000 418.400000
212 16002 11100 1 109.50000 418.400000
1875 16002 10098 1 109.50000 418.400000
1875 16002 11100 1 109.50000 418.400000
10098 16002 11100 1 109.50000 418.400000
481 16003 7280 1 109.50000 418.400000
481 16003 9238 1 109.50000 418.400000
481 16003 10557 1 109.50000 418.400000
7280 16003 9238 1 109.50000 418.400000
7280 16003 10557 1 109.50000 418.400000
9238 16003 10557 1 109.50000 418.400000
3413 16004 7957 1 109.50000 418.400000
3413 16004 11101 1 109.50000 418.400000
3413 16004 11102 1 109.50000 418.400000
7957 16004 11101 1 109.50000 418.400000
7957 16004 11102 1 109.50000 418.400000
11101 16004 11102 1 109.50000 418.400000
355 16005 3513 1 109.50000 418.400000
355 16005 3829 1 109.50000 418.400000
355 16005 11103 1 109.50000 418.400000
3513 16005 3829 1 109.50000 418.400000
3513 16005 11103 1 109.50000 418.400000
3829 16005 11103 1 109.50000 418.400000
7951 16006 8929 1 109.50000 418.400000
7951 16006 11074 1 109.50000 418.400000
7951 16006 11104 1 109.50000 418.400000
8929 16006 11074 1 109.50000 418.400000
8929 16006 11104 1 109.50000 418.400000
11074 16006 11104 1 109.50000 418.400000
2036 16007 9578 1 109.50000 418.400000
2036 16007 10004 1 109.50000 418.400000
2036 16007 11184 1 109.50000 418.400000
9578 16007 10004 1 109.50000 418.400000
9578 16007 11184 1 109.50000 418.400000
10004 16007 11184 1 109.50000 418.400000
2193 16008 4831 1 109.50000 418.400000
2193 16008 8666 1 109.50000 418.400000
2193 16008 8826 1 109.50000 418.400000
4831 16008 8666 1 109.50000 418.400000
4831 16008 8826 1 109.50000 418.400000
8666 16008 8826 1 109.50000 418.400000
1928 16009 6167 1 109.50000 418.400000
1928 16009 7245 1 109.50000 418.400000
1928 16009 11105 1 109.50000 418.400000
6167 16009 7245 1 109.50000 418.400000
6167 16009 11105 1 109.50000 418.400000
7245 16009 11105 1 109.50000 418.400000
790 16010 8671 1 109.50000 418.400000
790 16010 8984 1 109.50000 418.400000
790 16010 11106 1 109.50000 418.400000
8671 16010 8984 1 109.50000 418.400000
8671 16010 11106 1 109.50000 418.400000
8984 16010 11106 1 109.50000 418.400000
3587 16011 4365 1 109.50000 418.400000
3587 16011 6308 1 109.50000 418.400000
3587 16011 7463 1 109.50000 418.400000
4365 16011 6308 1 109.50000 418.400000
4365 16011 7463 1 109.50000 418.400000
6308 16011 7463 1 109.50000 418.400000
197 16012 9584 1 109.50000 418.400000
197 16012 10623 1 109.50000 418.400000
197 16012 11107 1 109.50000 418.400000
9584 16012 10623 1 109.50000 418.400000
9584 16012 11107 1 109.50000 418.400000
10623 16012 11107 1 109.50000 418.400000
2271 16013 6811 1 109.50000 418.400000
2271 16013 10117 1 109.50000 418.400000
2271 16013 10628 1 109.50000 418.400000
6811 16013 10117 1 109.50000 418.400000
6811 16013 10628 1 109.50000 418.400000
10117 16013 10628 1 109.50000 418.400000
5057 16014 6019 1 109.50000 418.400000
5057 16014 6189 1 109.50000 418.400000
5057 16014 8900 1 109.50000 418.400000
6019 16014 6189 1 109.50000 418.400000
6019 16014 8900 1 109.50000 418.400000
6189 16014 8900 1 109.50000 418.400000
5059 16015 8895 1 109.50000 418.400000
5059 16015 10077 1 109.50000 418.400000
5059 16015 11073 1 109.50000 418.400000
8895 16015 10077 1 109.50000 418.400000
8895 16015 11073 1 109.50000 418.400000
10077 16015 11073 1 109.50000 418.400000
223 16016 6437 1 109.50000 418.400000
223 16016 9978 1 109.50000 418.400000
223 16016 10023 1 109.50000 418.400000
6437 16016 9978 1 109.50000 418.400000
6437 16016 10023 1 109.50000 418.400000
9978 16016 10023 1 109.50000 418.400000
8867 16017 10043 1 109.50000 418.400000
8867 16017 10954 1 109.50000 418.400000
8867 16017 11220 1 109.50000 418.400000
10043 16017 10954 1 109.50000 418.400000
10043 16017 11220 1 109.50000 418.400000
10954 16017 11220 1 109.50000 418.400000
4125 16018 10512 1 109.50000 418.400000
4125 16018 10992 1 109.50000 418.400000
4125 16018 11083 1 109.50000 418.400000
10512 16018 10992 1 109.50000 418.400000
10512 16018 11083 1 109.50000 418.400000
10992 16018 11083 1 109.50000 418.400000
4021 16019 6994 1 109.50000 418.400000
4021 16019 8603 1 109.50000 418.400000
4021 16019 11108 1 109.50000 418.400000
6994 16019 8603 1 109.50000 418.400000
6994 16019 11108 1 109.50000 418.400000
8603 16019 11108 1 109.50000 418.400000
4027 16020 4145 1 109.50000 418.400000
4027 16020 10684 1 109.50000 418.400000
4027 16020 11107 1 109.50000 418.400000
4145 16020 10684 1 109.50000 418.400000
4145 16020 11107 1 109.50000 418.400000
10684 16020 11107 1 109.50000 418.400000
934 16021 1361 1 109.50000 418.400000
934 16021 8687 1 109.50000 418.400000
934 16021 9354 1 109.50000 418.400000
1361 16021 8687 1 109.50000 418.400000
1361 16021 9354 1 109.50000 418.400000
8687 16021 9354 1 109.50000 418.400000
1446 16022 8380 1 109.50000 418.400000
1446 16022 11021 1 109.50000 418.400000
1446 16022 11098 1 109.50000 418.400000
8380 16022 11021 1 109.50000 418.400000
8380 16022 11098 1 109.50000 418.400000
11021 16022 11098 1 109.50000 418.400000
1920 16023 8426 1 109.50000 418.400000
1920 16023 8427 1 109.50000 418.400000
1920 16023 8428 1 109.50000 418.400000
8426 16023 8427 1 109.50000 418.400000
8426 16023 8428 1 109.50000 418.400000
8427 16023 8428 1 109.50000 418.400000
2710 16024 4978 1 109.50000 418.400000
2710 16024 6332 1 109.50000 418.400000
2710 16024 11104 1 109.50000 418.400000
4978 16024 6332 1 109.50000 418.400000
4978 16024 11104 1 109.50000 418.400000
6332 16024 11104 1 109.50000 418.400000
459 16025 817 1 109.50000 418.400000
459 16025 8365 1 109.50000 418.400000
459 16025 10833 1 109.50000 418.400000
817 16025 8365 1 109.50000 418.400000
817 16025 10833 1 109.50000 418.400000
8365 16025 10833 1 109.50000 418.400000
1415 16026 7911 1 109.50000 418.400000
1415 16026 10264 1 109.50000 418.400000
1415 16026 11109 1 109.50000 418.400000
7911 16026 10264 1 109.50000 418.400000
7911 16026 11109 1 109.50000 418.400000
10264 16026 11109 1 109.50000 418.400000
9100 16027 9146 1 109.50000 418.400000
9100 16027 9960 1 109.50000 418.400000
9100 16027 11046 1 109.50000 418.400000
9146 16027 9960 1 109.50000 418.400000
9146 16027 11046 1 109.50000 418.400000
9960 16027 11046 1 109.50000 418.400000
5919 16028 9644 1 109.50000 418.400000
5919 16028 11042 1 109.50000 418.400000
5919 16028 11110 1 109.50000 418.400000
9644 16028 11042 1 109.50000 418.400000
9644 16028 11110 1 109.50000 418.400000
11042 16028 11110 1 109.50000 418.400000
2194 16029 2195 1 109.50000 418.400000
2194 16029 7368 1 109.50000 418.400000
2194 16029 10609 1 109.50000 418.400000
2195 16029 7368 1 109.50000 418.400000
2195 16029 10609 1 109.50000 418.400000
7368 16029 10609 1 109.50000 418.400000
5995 16030 8663 1 109.50000 418.400000
5995 16030 10394 1 109.50000 418.400000
5995 16030 10892 1 109.50000 418.400000
8663 16030 10394 1 109.50000 418.400000
8663 16030 10892 1 109.50000 418.400000
10394 16030 10892 1 109.50000 418.400000
6575 16031 8460 1 109.50000 418.400000
6575 16031 8461 1 109.50000 418.400000
6575 16031 10172 1 109.50000 418.400000
8460 16031 8461 1 109.50000 418.400000
8460 16031 10172 1 109.50000 418.400000
8461 16031 10172 1 109.50000 418.400000
4195 16032 4251 1 109.50000 418.400000
4195 16032 5222 1 109.50000 418.400000
4195 16032 10910 1 109.50000 418.400000
4251 16032 5222 1 109.50000 418.400000
4251 16032 10910 1 109.50000 418.400000
5222 16032 10910 1 109.50000 418.400000
1113 16033 1114 1 109.50000 418.400000
1113 16033 1314 1 109.50000 418.400000
1113 16033 6693 1 109.50000 418.400000
1114 16033 1314 1 109.50000 418.400000
1114 16033 6693 1 109.50000 418.400000
1314 16033 6693 1 109.50000 418.400000
2557 16034 2928 1 109.50000 418.400000
2557 16034 6921 1 109.50000 418.400000
2557 16034 10942 1 109.50000 418.400000
2928 16034 6921 1 109.50000 418.400000
2928 16034 10942 1 109.50000 418.400000
6921 16034 10942 1 109.50000 418.400000
10707 16035 10844 1 109.50000 418.400000
10707 16035 11027 1 109.50000 418.400000
10707 16035 11111 1 109.50000 418.400000
10844 16035 11027 1 109.50000 418.400000
10844 16035 11111 1 109.50000 418.400000
11027 16035 11111 1 109.50000 418.400000
4916 16036 7700 1 109.50000 418.400000
4916 16036 9309 1 109.50000 418.400000
4916 16036 11103 1 109.50000 418.400000
7700 16036 9309 1 109.50000 418.400000
7700 16036 11103 1 109.50000 418.400000
9309 16036 11103 1 109.50000 418.400000
3110 16037 7832 1 109.50000 418.400000
3110 16037 8559 1 109.50000 418.400000
3110 16037 10610 1 109.50000 418.400000
7832 16037 8559 1 109.50000 418.400000
7832 16037 10610 1 109.50000 418.400000
8559 16037 10610 1 109.50000 418.400000
3162 16038 5481 1 109.50000 418.400000
3162 16038 6512 1 109.50000 418.400000
3162 16038 7360 1 109.50000 418.400000
5481 16038 6512 1 109.50000 418.400000
5481 16038 7360 1 109.50000 418.400000
6512 16038 7360 1 109.50000 418.400000
227 16039 4639 1 109.50000 418.400000
227 16039 4910 1 109.50000 418.400000
227 16039 11001 1 109.50000 418.400000
4639 16039 4910 1 109.50000 418.400000
4639 16039 11001 1 109.50000 418.400000
4910 16039 11001 1 109.50000 418.400000
10542 16040 10706 1 109.50000 418.400000
10542 16040 11067 1 109.50000 418.400000
10542 16040 11112 1 109.50000 418.400000
10706 16040 11067 1 109.50000 418.400000
10706 16040 11112 1 109.50000 418.400000
11067 16040 11112 1 109.50000 418.400000
3676 16041 10932 1 109.50000 418.400000
3676 16041 11092 1 109.50000 418.400000
3676 16041 11113 1 109.50000 418.400000
10932 16041 11092 1 109.50000 418.400000
10932 16041 11113 1 109.50000 418.400000
11092 16041 11113 1 109.50000 418.400000
7583 16042 9243 1 109.50000 418.400000
7583 16042 10525 1 109.50000 418.400000
7583 16042 11114 1 109.50000 418.400000
9243 16042 10525 1 109.50000 418.400000
9243 16042 11114 1 109.50000 418.400000
10525 16042 11114 1 109.50000 418.400000
6776 16043 7030 1 109.50000 418.400000
6776 16043 10284 1 109.50000 418.400000
6776 16043 11030 1 109.50000 418.400000
7030 16043 10284 1 109.50000 418.400000
7030 16043 11030 1 109.50000 418.400000
10284 16043 11030 1 109.50000 418.400000
3557 16044 4786 1 109.50000 418.400000
3557 16044 5423 1 109.50000 418.400000
3557 16044 5869 1 109.50000 418.400000
4786 16044 5423 1 109.50000 418.400000
4786 16044 5869 1 109.50000 418.400000
5423 16044 5869 1 109.50000 418.400000
4531 16045 6578 1 109.50000 418.400000
4531 16045 7072 1 109.50000 418.400000
4531 16045 11106 1 109.50000 418.400000
6578 16045 7072 1 109.50000 418.400000
6578 16045 11106 1 109.50000 418.400000
7072 16045 11106 1 109.50000 418.400000
863 16046 2511 1 109.50000 418.400000
863 16046 9891 1 109.50000 418.400000
863 16046 11060 1 109.50000 418.400000
2511 16046 9891 1 109.50000 418.400000
2511 16046 11060 1 109.50000 418.400000
9891 16046 11060 1 109.50000 418.400000
527 16047 9008 1 109.50000 418.400000
527 16047 10986 1 109.50000 418.400000
527 16047 11026 1 109.50000 418.400000
9008 16047 10986 1 109.50000 418.400000
9008 16047 11026 1 109.50000 418.400000
10986 16047 11026 1 109.50000 418.400000
2520 16048 8218 1 109.50000 418.400000
2520 16048 8931 1 109.50000 418.400000
2520 16048 9387 1 109.50000 418.400000
8218 16048 8931 1 109.50000 418.400000
8218 16048 9387 1 109.50000 418.400000
8931 16048 9387 1 109.50000 418.400000
5324 16049 7154 1 109.50000 418.400000
5324 16049 8979 1 109.50000 418.400000
5324 16049 10556 1 109.50000 418.400000
7154 16049 8979 1 109.50000 418.400000
7154 16049 10556 1 109.50000 418.400000
8979 16049 10556 1 109.50000 418.400000
5819 16050 8576 1 109.50000 418.400000
5819 16050 10065 1 109.50000 418.400000
5819 16050 11115 1 109.50000 418.400000
8576 16050 10065 1 109.50000 418.400000
8576 16050 11115 1 109.50000 418.400000
10065 16050 11115 1 109.50000 418.400000
1818 16051 2863 1 109.50000 418.400000
1818 16051 3073 1 109.50000 418.400000
1818 16051 10891 1 109.50000 418.400000
2863 16051 3073 1 109.50000 418.400000
2863 16051 10891 1 109.50000 418.400000
3073 16051 10891 1 109.50000 418.400000
5332 16052 9586 1 109.50000 418.400000
5332 16052 10788 1 109.50000 418.400000
5332 16052 11063 1 109.50000 418.400000
9586 16052 10788 1 109.50000 418.400000
9586 16052 11063 1 109.50000 418.400000
10788 16052 11063 1 109.50000 418.400000
997 16053 4485 1 109.50000 418.400000
997 16053 8556 1 109.50000 418.400000
997 16053 10225 1 109.50000 418.400000
4485 16053 8556 1 109.50000 418.400000
4485 16053 10225 1 109.50000 418.400000
8556 16053 10225 1 109.50000 418.400000
2711 16054 4976 1 109.50000 418.400000
2711 16054 9912 1 109.50000 418.400000
2711 16054 11117 1 109.50000 418.400000
4976 16054 9912 1 109.50000 418.400000
4976 16054 11117 1 109.50000 418.400000
9912 16054 11117 1 109.50000 418.400000
572 16055 1188 1 109.50000 418.400000
572 16055 8563 1 109.50000 418.400000
572 16055 10972 1 109.50000 418.400000
1188 16055 8563 1 109.50000 418.400000
1188 16055 10972 1 109.50000 418.400000
8563 16055 10972 1 109.50000 418.400000
680 16056 1538 1 109.50000 418.400000
680 16056 6543 1 109.50000 418.400000
680 16056 8073 1 109.50000 418.400000
1538 16056 6543 1 109.50000 418.400000
1538 16056 8073 1 109.50000 418.400000
6543 16056 8073 1 109.50000 418.400000
1651 16057 8398 1 109.50000 418.400000
1651 16057 8564 1 109.50000 418.400000
1651 16057 11069 1 109.50000 418.400000
8398 16057 8564 1 109.50000 418.400000
8398 16057 11069 1 109.50000 418.400000
8564 16057 11069 1 109.50000 418.400000
4549 16058 6861 1 109.50000 418.400000
4549 16058 8819 1 109.50000 418.400000
4549 16058 11093 1 109.50000 418.400000
6861 16058 8819 1 109.50000 418.400000
6861 16058 11093 1 109.50000 418.400000
8819 16058 11093 1 109.50000 418.400000
3694 16059 4683 1 109.50000 418.400000
3694 16059 8517 1 109.50000 418.400000
3694 16059 11118 1 109.50000 418.400000
4683 16059 8517 1 109.50000 418.400000
4683 16059 11118 1 109.50000 418.400000
8517 16059 11118 1 109.50000 418.400000
8240 16060 8242 1 109.50000 418.400000
8240 16060 9782 1 109.50000 418.400000
8240 16060 10044 1 109.50000 418.400000
8242 16060 9782 1 109.50000 418.400000
8242 16060 10044 1 109.50000 418.400000
9782 16060 10044 1 109.50000 418.400000
1108 16061 2925 1 109.50000 418.400000
1108 16061 6072 1 109.50000 418.400000
1108 16061 6322 1 109.50000 418.400000
2925 16061 6072 1 109.50000 418.400000
2925 16061 6322 1 109.50000 418.400000
6072 16061 6322 1 109.50000 418.400000
2951 16062 2952 1 109.50000 418.400000
2951 16062 2953 1 109.50000 418.400000
2951 16062 2954 1 109.50000 418.400000
2952 16062 2953 1 109.50000 418.400000
2952 16062 2954 1 109.50000 418.400000
2953 16062 2954 1 109.50000 418.400000
8605 16063 8693 1 109.50000 418.400000
8605 16063 9171 1 109.50000 418.400000
8605 16063 11119 1 109.50000 418.400000
8693 16063 9171 1 109.50000 418.400000
8693 16063 11119 1 109.50000 418.400000
9171 16063 11119 1 109.50000 418.400000
5103 16064 10078 1 109.50000 418.400000
5103 16064 11102 1 109.50000 418.400000
5103 16064 11120 1 109.50000 418.400000
10078 16064 11102 1 109.50000 418.400000
10078 16064 11120 1 109.50000 418.400000
11102 16064 11120 1 109.50000 418.400000
1726 16065 2981 1 109.50000 418.400000
1726 16065 7778 1 109.50000 418.400000
1726 16065 10651 1 109.50000 418.400000
2981 16065 7778 1 109.50000 418.400000
2981 16065 10651 1 109.50000 418.400000
7778 16065 10651 1 109.50000 418.400000
5500 16066 7929 1 109.50000 418.400000
5500 16066 9783 1 109.50000 418.400000
5500 16066 10914 1 109.50000 418.400000
7929 16066 9783 1 109.50000 418.400000
7929 16066 10914 1 109.50000 418.400000
9783 16066 10914 1 109.50000 418.400000
29 16067 782 1 109.50000 418.400000
29 16067 11070 1 109.50000 418.400000
29 16067 11121 1 109.50000 418.400000
782 16067 11070 1 109.50000 418.400000
782 16067 11121 1 109.50000 418.400000
11070 16067 11121 1 109.50000 418.400000
3027 16068 6288 1 109.50000 418.400000
3027 16068 9017 1 109.50000 418.400000
3027 16068 10363 1 109.50000 418.400000
6288 16068 9017 1 109.50000 418.400000
6288 16068 10363 1 109.50000 418.400000
9017 16068 10363 1 109.50000 418.400000
5839 16069 5840 1 109.50000 418.400000
5839 16069 5841 1 109.50000 418.400000
5839 16069 5842 1 109.50000 418.400000
5840 16069 5841 1 109.50000 418.400000
5840 16069 5842 1 109.50000 418.400000
5841 16069 5842 1 109.50000 418.400000
7782 16070 10299 1 109.50000 418.400000
7782 16070 10420 1 109.50000 418.400000
7782 16070 10872 1 109.50000 418.400000
10299 16070 10420 1 109.50000 418.400000
10299 16070 10872 1 109.50000 418.400000
10420 16070 10872 1 109.50000 418.400000
989 16071 3441 1 109.50000 418.400000
989 16071 4555 1 109.50000 418.400000
989 16071 11005 1 109.50000 418.400000
3441 16071 4555 1 109.50000 418.400000
3441 16071 11005 1 109.50000 418.400000
4555 16071 11005 1 109.50000 418.400000
4452 16072 8927 1 109.50000 418.400000
4452 16072 10776 1 109.50000 418.400000
4452 16072 11228 1 109.50000 418.400000
8927 16072 10776 1 109.50000 418.400000
8927 16072 11228 1 109.50000 418.400000
10776 16072 11228 1 109.50000 418.400000
1706 16073 2034 1 109.50000 418.400000
1706 16073 3366 1 109.50000 418.400000
1706 16073 8133 1 109.50000 418.400000
2034 16073 3366 1 109.50000 418.400000
2034 16073 8133 1 109.50000 418.400000
3366 16073 8133 1 109.50000 418.400000
3198 16074 8534 1 109.50000 418.400000
3198 16074 9524 1 109.50000 418.400000
3198 16074 9845 1 109.50000 418.400000
8534 16074 9524 1 109.50000 418.400000
8534 16074 9845 1 109.50000 418.400000
9524 16074 9845 1 109.50000 418.400000
1146 16075 2648 1 109.50000 418.400000
1146 16075 2649 1 109.50000 418.400000
1146 16075 5400 1 109.50000 418.400000
2648 16075 2649 1 109.50000 418.400000
2648 16075 5400 1 109.50000 418.400000
2649 16075 5400 1 109.50000 418.400000
825 16076 826 1 109.50000 418.400000
825 16076 8046 1 109.50000 418.400000
825 16076 8595 1 109.50000 418.400000
826 16076 8046 1 109.50000 418.400000
826 16076 8595 1 109.50000 418.400000
8046 16076 8595 1 109.50000 418.400000
3697 16077 5445 1 109.50000 418.400000
3697 16077 5931 1 109.50000 418.400000
3697 16077 9762 1 109.50000 418.400000
5445 16077 5931 1 109.50000 418.400000
5445 16077 9762 1 109.50000 418.400000
5931 16077 9762 1 109.50000 418.400000
6290 16078 6374 1 109.50000 418.400000
6290 16078 7955 1 109.50000 418.400000
6290 16078 8488 1 109.50000 418.400000
6374 16078 7955 1 109.50000 418.400000
6374 16078 8488 1 109.50000 418.400000
7955 16078 8488 1 109.50000 418.400000
6268 16079 8904 1 109.50000 418.400000
6268 16079 10127 1 109.50000 418.400000
6268 16079 11109 1 109.50000 418.400000
8904 16079 10127 1 109.50000 418.400000
8904 16079 11109 1 109.50000 418.400000
10127 16079 11109 1 109.50000 418.400000
1596 16080 3116 1 109.50000 418.400000
1596 16080 7715 1 109.50000 418.400000
1596 16080 8738 1 109.50000 418.400000
3116 16080 7715 1 109.50000 418.400000
3116 16080 8738 1 109.50000 418.400000
7715 16080 8738 1 109.50000 418.400000
419 16081 1168 1 109.50000 418.400000
419 16081 4116 1 109.50000 418.400000
419 16081 9673 1 109.50000 418.400000
1168 16081 4116 1 109.50000 418.400000
1168 16081 9673 1 109.50000 418.400000
4116 16081 9673 1 109.50000 418.400000
5496 16082 7539 1 109.50000 418.400000
5496 16082 9565 1 109.50000 418.400000
5496 16082 11013 1 109.50000 418.400000
7539 16082 9565 1 109.50000 418.400000
7539 16082 11013 1 109.50000 418.400000
9565 16082 11013 1 109.50000 418.400000
920 16083 8578 1 109.50000 418.400000
920 16083 11055 1 109.50000 418.400000
920 16083 11122 1 109.50000 418.400000
8578 16083 11055 1 109.50000 418.400000
8578 16083 11122 1 109.50000 418.400000
11055 16083 11122 1 109.50000 418.400000
1458 16084 5012 1 109.50000 418.400000
1458 16084 10734 1 109.50000 418.400000
1458 16084 11076 1 109.50000 418.400000
5012 16084 10734 1 109.50000 418.400000
5012 16084 11076 1 109.50000 418.400000
10734 16084 11076 1 109.50000 418.400000
2538 16085 6352 1 109.50000 418.400000
2538 16085 6530 1 109.50000 418.400000
2538 16085 7018 1 109.50000 418.400000
6352 16085 6530 1 109.50000 418.400000
6352 16085 7018 1 109.50000 418.400000
6530 16085 7018 1 109.50000 418.400000
1966 16086 3814 1 109.50000 418.400000
1966 16086 10103 1 109.50000 418.400000
1966 16086 11123 1 109.50000 418.400000
3814 16086 10103 1 109.50000 418.400000
3814 16086 11123 1 109.50000 418.400000
10103 16086 11123 1 109.50000 418.400000
2098 16087 2099 1 109.50000 418.400000
2098 16087 5776 1 109.50000 418.400000
2098 16087 10419 1 109.50000 418.400000
2099 16087 5776 1 109.50000 418.400000
2099 16087 10419 1 109.50000 418.400000
5776 16087 10419 1 109.50000 418.400000
3062 16088 5161 1 109.50000 418.400000
3062 16088 5162 1 109.50000 418.400000
3062 16088 10984 1 109.50000 418.400000
5161 16088 5162 1 109.50000 418.400000
5161 16088 10984 1 109.50000 418.400000
5162 16088 10984 1 109.50000 418.400000
4205 16089 7226 1 109.50000 418.400000
4205 16089 9368 1 109.50000 418.400000
4205 16089 11010 1 109.50000 418.400000
7226 16089 9368 1 109.50000 418.400000
7226 16089 11010 1 109.50000 418.400000
9368 16089 11010 1 109.50000 418.400000
994 16090 6005 1 109.50000 418.400000
994 16090 10929 1 109.50000 418.400000
994 16090 10960 1 109.50000 418.400000
6005 16090 10929 1 109.50000 418.400000
6005 16090 10960 1 109.50000 418.400000
10929 16090 10960 1 109.50000 418.400000
2934 16091 9186 1 109.50000 418.400000
2934 16091 10261 1 109.50000 418.400000
2934 16091 10351 1 109.50000 418.400000
9186 16091 10261 1 109.50000 418.400000
9186 16091 10351 1 109.50000 418.400000
10261 16091 10351 1 109.50000 418.400000
1656 16092 5198 1 109.50000 418.400000
1656 16092 8110 1 109.50000 418.400000
1656 16092 9833 1 109.50000 418.400000
5198 16092 8110 1 109.50000 418.400000
5198 16092 9833 1 109.50000 418.400000
8110 16092 9833 1 109.50000 418.400000
2619 16093 3128 1 109.50000 418.400000
2619 16093 7023 1 109.50000 418.400000
2619 16093 10965 1 109.50000 418.400000
3128 16093 7023 1 109.50000 418.400000
3128 16093 10965 1 109.50000 418.400000
7023 16093 10965 1 109.50000 418.400000
428 16094 4508 1 109.50000 418.400000
428 16094 5681 1 109.50000 418.400000
428 16094 11087 1 109.50000 418.400000
4508 16094 5681 1 109.50000 418.400000
4508 16094 11087 1 109.50000 418.400000
5681 16094 11087 1 109.50000 418.400000
7598 16095 10808 1 109.50000 418.400000
7598 16095 11188 1 109.50000 418.400000
7598 16095 11216 1 109.50000 418.400000
10808 16095 11188 1 109.50000 418.400000
10808 16095 11216 1 109.50000 418.400000
11188 16095 11216 1 109.50000 418.400000
4414 16096 5987 1 109.50000 418.400000
4414 16096 8401 1 109.50000 418.400000
4414 16096 10624 1 109.50000 418.400000
5987 16096 8401 1 109.50000 418.400000
5987 16096 10624 1 109.50000 418.400000
8401 16096 10624 1 109.50000 418.400000
5015 16097 7322 1 109.50000 418.400000
5015 16097 7889 1 109.50000 418.400000
5015 16097 10973 1 109.50000 418.400000
7322 16097 7889 1 109.50000 418.400000
7322 16097 10973 1 109.50000 418.400000
7889 16097 10973 1 109.50000 418.400000
3411 16098 10079 1 109.50000 418.400000
3411 16098 10680 1 109.50000 418.400000
3411 16098 11053 1 109.50000 418.400000
10079 16098 10680 1 109.50000 418.400000
10079 16098 11053 1 109.50000 418.400000
10680 16098 11053 1 109.50000 418.400000
2940 16099 4320 1 109.50000 418.400000
2940 16099 4652 1 109.50000 418.400000
2940 16099 9735 1 109.50000 418.400000
4320 16099 4652 1 109.50000 418.400000
4320 16099 9735 1 109.50000 418.400000
4652 16099 9735 1 109.50000 418.400000
520 16100 2176 1 109.50000 418.400000
520 16100 2178 1 109.50000 418.400000
520 16100 11124 1 109.50000 418.400000
2176 16100 2178 1 109.50000 418.400000
2176 16100 11124 1 109.50000 418.400000
2178 16100 11124 1 109.50000 418.400000
10377 16101 10639 1 109.50000 418.400000
10377 16101 11054 1 109.50000 418.400000
10377 16101 11115 1 109.50000 418.400000
10639 16101 11054 1 109.50000 418.400000
10639 16101 11115 1 109.50000 418.400000
11054 16101 11115 1 109.50000 418.400000
3837 16102 7972 1 109.50000 418.400000
3837 16102 7973 1 109.50000 418.400000
3837 16102 7974 1 109.50000 418.400000
7972 16102 7973 1 109.50000 418.400000
7972 16102 7974 1 109.50000 418.400000
7973 16102 7974 1 109.50000 418.400000
85 16103 2406 1 109.50000 418.400000
85 16103 6731 1 109.50000 418.400000
85 16103 10062 1 109.50000 418.400000
2406 16103 6731 1 109.50000 418.400000
2406 16103 10062 1 109.50000 418.400000
6731 16103 10062 1 109.50000 418.400000
3489 16104 9205 1 109.50000 418.400000
3489 16104 10386 1 109.50000 418.400000
3489 16104 10907 1 109.50000 418.400000
9205 16104 10386 1 109.50000 418.400000
9205 16104 10907 1 109.50000 418.400000
10386 16104 10907 1 109.50000 418.400000
2108 16105 3589 1 109.50000 418.400000
2108 16105 5844 1 109.50000 418.400000
2108 16105 8994 1 109.50000 418.400000
3589 16105 5844 1 109.50000 418.400000
3589 16105 8994 1 109.50000 418.400000
5844 16105 8994 1 109.50000 418.400000
6648 16106 7954 1 109.50000 418.400000
6648 16106 10359 1 109.50000 418.400000
6648 16106 10537 1 109.50000 418.400000
7954 16106 10359 1 109.50000 418.400000
7954 16106 10537 1 109.50000 418.400000
10359 16106 10537 1 109.50000 418.400000
6778 16107 9546 1 109.50000 418.400000
6778 16107 9814 1 109.50000 418.400000
6778 16107 10510 1 109.50000 418.400000
9546 16107 9814 1 109.50000 418.400000
9546 16107 10510 1 109.50000 418.400000
9814 16107 10510 1 109.50000 418.400000
1543 16108 9207 1 109.50000 418.400000
1543 16108 9274 1 109.50000 418.400000
1543 16108 10850 1 109.50000 418.400000
9207 16108 9274 1 109.50000 418.400000
9207 16108 10850 1 109.50000 418.400000
9274 16108 10850 1 109.50000 418.400000
824 16109 6394 1 109.50000 418.400000
824 16109 10601 1 109.50000 418.400000
824 16109 11065 1 109.50000 418.400000
6394 16109 10601 1 109.50000 418.400000
6394 16109 11065 1 109.50000 418.400000
10601 16109 11065 1 109.50000 418.400000
1284 16110 1285 1 109.50000 418.400000
1284 16110 5949 1 109.50000 418.400000
1284 16110 10699 1 109.50000 418.400000
1285 16110 5949 1 109.50000 418.400000
1285 16110 10699 1 109.50000 418.400000
5949 16110 10699 1 109.50000 418.400000
4105 16111 5215 1 109.50000 418.400000
4105 16111 9539 1 109.50000 418.400000
4105 16111 11018 1 109.50000 418.400000
5215 16111 9539 1 109.50000 418.400000
5215 16111 11018 1 109.50000 418.400000
9539 16111 11018 1 109.50000 418.400000
7523 16112 9123 1 109.50000 418.400000
7523 16112 10809 1 109.50000 418.400000
7523 16112 11082 1 109.50000 418.400000
9123 16112 10809 1 109.50000 418.400000
9123 16112 11082 1 109.50000 418.400000
10809 16112 11082 1 109.50000 418.400000
338 16113 4532 1 109.50000 418.400000
338 16113 8670 1 109.50000 418.400000
338 16113 9680 1 109.50000 418.400000
4532 16113 8670 1 109.50000 418.400000
4532 16113 9680 1 109.50000 418.400000
8670 16113 9680 1 109.50000 418.400000
382 16114 10509 1 109.50000 418.400000
382 16114 10796 1 109.50000 418.400000
382 16114 10978 1 109.50000 418.400000
10509 16114 10796 1 109.50000 418.400000
10509 16114 10978 1 109.50000 418.400000
10796 16114 10978 1 109.50000 418.400000
1295 16115 2041 1 109.50000 418.400000
1295 16115 3752 1 109.50000 418.400000
1295 16115 4326 1 109.50000 418.400000
2041 16115 3752 1 109.50000 418.400000
2041 16115 4326 1 109.50000 418.400000
3752 16115 4326 1 109.50000 418.400000
1449 16116 5760 1 109.50000 418.400000
1449 16116 5815 1 109.50000 418.400000
1449 16116 7336 1 109.50000 418.400000
5760 16116 5815 1 109.50000 418.400000
5760 16116 7336 1 109.50000 418.400000
5815 16116 7336 1 109.50000 418.400000
2173 16117 7382 1 109.50000 418.400000
2173 16117 8025 1 109.50000 418.400000
2173 16117 10039 1 109.50000 418.400000
7382 16117 8025 1 109.50000 418.400000
7382 16117 10039 1 109.50000 418.400000
8025 16117 10039 1 109.50000 418.400000
247 16118 587 1 109.50000 418.400000
247 16118 7961 1 109.50000 418.400000
247 16118 10709 1 109.50000 418.400000
587 16118 7961 1 109.50000 418.400000
587 16118 10709 1 109.50000 418.400000
7961 16118 10709 1 109.50000 418.400000
947 16119 2466 1 109.50000 418.400000
947 16119 6955 1 109.50000 418.400000
947 16119 9488 1 109.50000 418.400000
2466 16119 6955 1 109.50000 418.400000
2466 16119 9488 1 109.50000 418.400000
6955 16119 9488 1 109.50000 418.400000
4107 16120 8159 1 109.50000 418.400000
4107 16120 10436 1 109.50000 418.400000
4107 16120 11126 1 109.50000 418.400000
8159 16120 10436 1 109.50000 418.400000
8159 16120 11126 1 109.50000 418.400000
10436 16120 11126 1 109.50000 418.400000
2395 16121 2397 1 109.50000 418.400000
2395 16121 4283 1 109.50000 418.400000
2395 16121 8310 1 109.50000 418.400000
2397 16121 4283 1 109.50000 418.400000
2397 16121 8310 1 109.50000 418.400000
4283 16121 8310 1 109.50000 418.400000
364 16122 4503 1 109.50000 418.400000
364 16122 6325 1 109.50000 418.400000
364 16122 7134 1 109.50000 418.400000
4503 16122 6325 1 109.50000 418.400000
4503 16122 7134 1 109.50000 418.400000
6325 16122 7134 1 109.50000 418.400000
5435 16123 6804 1 109.50000 418.400000
5435 16123 7587 1 109.50000 418.400000
5435 16123 10921 1 109.50000 418.400000
6804 16123 7587 1 109.50000 418.400000
6804 16123 10921 1 109.50000 418.400000
7587 16123 10921 1 109.50000 418.400000
1103 16124 7537 1 109.50000 418.400000
1103 16124 10107 1 109.50000 418.400000
1103 16124 11127 1 109.50000 418.400000
7537 16124 10107 1 109.50000 418.400000
7537 16124 11127 1 109.50000 418.400000
10107 16124 11127 1 109.50000 418.400000
1079 16125 1890 1 109.50000 418.400000
1079 16125 7150 1 109.50000 418.400000
1079 16125 7759 1 109.50000 418.400000
1890 16125 7150 1 109.50000 418.400000
1890 16125 7759 1 109.50000 418.400000
7150 16125 7759 1 109.50000 418.400000
6328 16126 8332 1 109.50000 418.400000
6328 16126 9638 1 109.50000 418.400000
6328 16126 11128 1 109.50000 418.400000
8332 16126 9638 1 109.50000 418.400000
8332 16126 11128 1 109.50000 418.400000
9638 16126 11128 1 109.50000 418.400000
6278 16127 9381 1 109.50000 418.400000
6278 16127 10102 1 109.50000 418.400000
6278 16127 10897 1 109.50000 418.400000
9381 16127 10102 1 109.50000 418.400000
9381 16127 10897 1 109.50000 418.400000
10102 16127 10897 1 109.50000 418.400000
2980 16128 9149 1 109.50000 418.400000
2980 16128 11017 1 109.50000 418.400000
2980 16128 11129 1 109.50000 418.400000
9149 16128 11017 1 109.50000 418.400000
9149 16128 11129 1 109.50000 418.400000
11017 16128 11129 1 109.50000 418.400000
2477 16129 2479 1 109.50000 418.400000
2477 16129 3081 1 109.50000 418.400000
2477 16129 9339 1 109.50000 418.400000
2479 16129 3081 1 109.50000 418.400000
2479 16129 9339 1 109.50000 418.400000
3081 16129 9339 1 109.50000 418.400000
6061 16130 7684 1 109.50000 418.400000
6061 16130 10847 1 109.50000 418.400000
6061 16130 11031 1 109.50000 418.400000
7684 16130 10847 1 109.50000 418.400000
7684 16130 11031 1 109.50000 418.400000
10847 16130 11031 1 109.50000 418.400000
2634 16131 7729 1 109.50000 418.400000
2634 16131 9088 1 109.50000 418.400000
2634 16131 9868 1 109.50000 418.400000
7729 16131 9088 1 109.50000 418.400000
7729 16131 9868 1 109.50000 418.400000
9088 16131 9868 1 109.50000 418.400000
2828 16132 4120 1 109.50000 418.400000
2828 16132 9523 1 109.50000 418.400000
2828 16132 11114 1 109.50000 418.400000
4120 16132 9523 1 109.50000 418.400000
4120 16132 11114 1 109.50000 418.400000
9523 16132 11114 1 109.50000 418.400000
10579 16133 10887 1 109.50000 418.400000
10579 16133 11095 1 109.50000 418.400000
10579 16133 11097 1 109.50000 418.400000
10887 16133 11095 1 109.50000 418.400000
10887 16133 11097 1 109.50000 418.400000
11095 16133 11097 1 109.50000 418.400000
6241 16134 6351 1 109.50000 418.400000
6241 16134 6404 1 109.50000 418.400000
6241 16134 9875 1 109.50000 418.400000
6351 16134 6404 1 109.50000 418.400000
6351 16134 9875 1 109.50000 418.400000
6404 16134 9875 1 109.50000 418.400000
124 16135 2331 1 109.50000 418.400000
124 16135 8116 1 109.50000 418.400000
124 16135 11130 1 109.50000 418.400000
2331 16135 8116 1 109.50000 418.400000
2331 16135 11130 1 109.50000 418.400000
8116 16135 11130 1 109.50000 418.400000
8735 16136 10446 1 109.50000 418.400000
8735 16136 10733 1 109.50000 418.400000
8735 16136 11113 1 109.50000 418.400000
10446 16136 10733 1 109.50000 418.400000
10446 16136 11113 1 109.50000 418.400000
10733 16136 11113 1 109.50000 418.400000
2608 16137 3982 1 109.50000 418.400000
2608 16137 10848 1 109.50000 418.400000
2608 16137 11100 1 109.50000 418.400000
3982 16137 10848 1 109.50000 418.400000
3982 16137 11100 1 109.50000 418.400000
10848 16137 11100 1 109.50000 418.400000
3732 16138 10938 1 109.50000 418.400000
3732 16138 10989 1 109.50000 418.400000
3732 16138 11066 1 109.50000 418.400000
10938 16138 10989 1 109.50000 418.400000
10938 16138 11066 1 109.50000 418.400000
10989 16138 11066 1 109.50000 418.400000
2124 16139 3528 1 109.50000 418.400000
2124 16139 7972 1 109.50000 418.400000
2124 16139 10156 1 109.50000 418.400000
3528 16139 7972 1 109.50000 418.400000
3528 16139 10156 1 109.50000 418.400000
7972 16139 10156 1 109.50000 418.400000
1001 16140 4931 1 109.50000 418.400000
1001 16140 9451 1 109.50000 418.400000
1001 16140 10909 1 109.50000 418.400000
4931 16140 9451 1 109.50000 418.400000
4931 16140 10909 1 109.50000 418.400000
9451 16140 10909 1 109.50000 418.400000
2291 16141 9617 1 109.50000 418.400000
2291 16141 10215 1 109.50000 418.400000
2291 16141 10812 1 109.50000 418.400000
9617 16141 10215 1 109.50000 418.400000
9617 16141 10812 1 109.50000 418.400000
10215 16141 10812 1 109.50000 418.400000
4300 16142 4445 1 109.50000 418.400000
4300 16142 8557 1 109.50000 418.400000
4300 16142 11127 1 109.50000 418.400000
4445 16142 8557 1 109.50000 418.400000
4445 16142 11127 1 109.50000 418.400000
8557 16142 11127 1 109.50000 418.400000
3865 16143 5537 1 109.50000 418.400000
3865 16143 5668 1 109.50000 418.400000
3865 16143 8996 1 109.50000 418.400000
5537 16143 5668 1 109.50000 418.400000
5537 16143 8996 1 109.50000 418.400000
5668 16143 8996 1 109.50000 418.400000
5623 16144 9503 1 109.50000 418.400000
5623 16144 9924 1 109.50000 418.400000
5623 16144 11048 1 109.50000 418.400000
9503 16144 9924 1 109.50000 418.400000
9503 16144 11048 1 109.50000 418.400000
9924 16144 11048 1 109.50000 418.400000
4520 16145 8697 1 109.50000 418.400000
4520 16145 10827 1 109.50000 418.400000
4520 16145 11131 1 109.50000 418.400000
8697 16145 10827 1 109.50000 418.400000
8697 16145 11131 1 109.50000 418.400000
10827 16145 11131 1 109.50000 418.400000
4726 16146 7378 1 109.50000 418.400000
4726 16146 8319 1 109.50000 418.400000
4726 16146 8516 1 109.50000 418.400000
7378 16146 8319 1 109.50000 418.400000
7378 16146 8516 1 109.50000 418.400000
8319 16146 8516 1 109.50000 418.400000
1287 16147 1897 1 109.50000 418.400000
1287 16147 3833 1 109.50000 418.400000
1287 16147 10899 1 109.50000 418.400000
1897 16147 3833 1 109.50000 418.400000
1897 16147 10899 1 109.50000 418.400000
3833 16147 10899 1 109.50000 418.400000
7654 16148 8739 1 109.50000 418.400000
7654 16148 10454 1 109.50000 418.400000
7654 16148 11096 1 109.50000 418.400000
8739 16148 10454 1 109.50000 418.400000
8739 16148 11096 1 109.50000 418.400000
10454 16148 11096 1 109.50000 418.400000
465 16149 8347 1 109.50000 418.400000
465 16149 10007 1 109.50000 418.400000
465 16149 10792 1 109.50000 418.400000
8347 16149 10007 1 109.50000 418.400000
8347 16149 10792 1 109.50000 418.400000
10007 16149 10792 1 109.50000 418.400000
2269 16150 2270 1 109.50000 418.400000
2269 16150 6796 1 109.50000 418.400000
2269 16150 11123 1 109.50000 418.400000
2270 16150 6796 1 109.50000 418.400000
2270 16150 11123 1 109.50000 418.400000
6796 16150 11123 1 109.50000 418.400000
4119 16151 6915 1 109.50000 418.400000
4119 16151 10371 1 109.50000 418.400000
4119 16151 11213 1 109.50000 418.400000
6915 16151 10371 1 109.50000 418.400000
6915 16151 11213 1 109.50000 418.400000
10371 16151 11213 1 109.50000 418.400000
2951 16152 5399 1 109.50000 418.400000
2951 16152 10106 1 109.50000 418.400000
2951 16152 10596 1 109.50000 418.400000
5399 16152 10106 1 109.50000 418.400000
5399 16152 10596 1 109.50000 418.400000
10106 16152 10596 1 109.50000 418.400000
4277 16153 8607 1 109.50000 418.400000
4277 16153 10503 1 109.50000 418.400000
4277 16153 10548 1 109.50000 418.400000
8607 16153 10503 1 109.50000 418.400000
8607 16153 10548 1 109.50000 418.400000
10503 16153 10548 1 109.50000 418.400000
6673 16154 7561 1 109.50000 418.400000
6673 16154 9850 1 109.50000 418.400000
6673 16154 11079 1 109.50000 418.400000
7561 16154 9850 1 109.50000 418.400000
7561 16154 11079 1 109.50000 418.400000
9850 16154 11079 1 109.50000 418.400000
3398 16155 8542 1 109.50000 418.400000
3398 16155 11084 1 109.50000 418.400000
3398 16155 11130 1 109.50000 418.400000
8542 16155 11084 1 109.50000 418.400000
8542 16155 11130 1 109.50000 418.400000
11084 16155 11130 1 109.50000 418.400000
2989 16156 4560 1 109.50000 418.400000
2989 16156 5262 1 109.50000 418.400000
2989 16156 5266 1 109.50000 418.400000
4560 16156 5262 1 109.50000 418.400000
4560 16156 5266 1 109.50000 418.400000
5262 16156 5266 1 109.50000 418.400000
6529 16157 10287 1 109.50000 418.400000
6529 16157 10789 1 109.50000 418.400000
6529 16157 11132 1 109.50000 418.400000
10287 16157 10789 1 109.50000 418.400000
10287 16157 11132 1 109.50000 418.400000
10789 16157 11132 1 109.50000 418.400000
2162 16158 2595 1 109.50000 418.400000
2162 16158 9456 1 109.50000 418.400000
2162 16158 11007 1 109.50000 418.400000
2595 16158 9456 1 109.50000 418.400000
2595 16158 11007 1 109.50000 418.400000
9456 16158 11007 1 109.50000 418.400000
224 16159 3114 1 109.50000 418.400000
224 16159 6829 1 109.50000 418.400000
224 16159 10455 1 109.50000 418.400000
3114 16159 6829 1 109.50000 418.400000
3114 16159 10455 1 109.50000 418.400000
6829 16159 10455 1 109.50000 418.400000
1071 16160 6221 1 109.50000 418.400000
1071 16160 9174 1 109.50000 418.400000
1071 16160 10115 1 109.50000 418.400000
6221 16160 9174 1 109.50000 418.400000
6221 16160 10115 1 109.50000 418.400000
9174 16160 10115 1 109.50000 418.400000
1262 16161 5418 1 109.50000 418.400000
1262 16161 6751 1 109.50000 418.400000
1262 16161 9880 1 109.50000 418.400000
5418 16161 6751 1 109.50000 418.400000
5418 16161 9880 1 109.50000 418.400000
6751 16161 9880 1 109.50000 418.400000
7988 16162 8127 1 109.50000 418.400000
7988 16162 10234 1 109.50000 418.400000
7988 16162 11129 1 109.50000 418.400000
8127 16162 10234 1 109.50000 418.400000
8127 16162 11129 1 109.50000 418.400000
10234 16162 11129 1 109.50000 418.400000
2999 16163 3997 1 109.50000 418.400000
2999 16163 8855 1 109.50000 418.400000
2999 16163 10245 1 109.50000 418.400000
3997 16163 8855 1 109.50000 418.400000
3997 16163 10245 1 109.50000 418.400000
8855 16163 10245 1 109.50000 418.400000
3748 16164 4413 1 109.50000 418.400000
3748 16164 10093 1 109.50000 418.400000
3748 16164 11126 1 109.50000 418.400000
4413 16164 10093 1 109.50000 418.400000
4413 16164 11126 1 109.50000 418.400000
10093 16164 11126 1 109.50000 418.400000
213 16165 2717 1 109.50000 418.400000
213 16165 5168 1 109.50000 418.400000
213 16165 7175 1 109.50000 418.400000
2717 16165 5168 1 109.50000 418.400000
2717 16165 7175 1 109.50000 418.400000
5168 16165 7175 1 109.50000 418.400000
2657 16166 6688 1 109.50000 418.400000
2657 16166 10353 1 109.50000 418.400000
2657 16166 11122 1 109.50000 418.400000
6688 16166 10353 1 109.50000 418.400000
6688 16166 11122 1 109.50000 418.400000
10353 16166 11122 1 109.50000 418.400000
4977 16167 8238 1 109.50000 418.400000
4977 16167 10024 1 109.50000 418.400000
4977 16167 10272 1 109.50000 418.400000
8238 16167 10024 1 109.50000 418.400000
8238 16167 10272 1 109.50000 418.400000
10024 16167 10272 1 109.50000 418.400000
2826 16168 8949 1 109.50000 418.400000
2826 16168 10011 1 109.50000 418.400000
2826 16168 10993 1 109.50000 418.400000
8949 16168 10011 1 109.50000 418.400000
8949 16168 10993 1 109.50000 418.400000
10011 16168 10993 1 109.50000 418.400000
7258 16169 7940 1 109.50000 418.400000
7258 16169 9297 1 109.50000 418.400000
7258 16169 9696 1 109.50000 418.400000
7940 16169 9297 1 109.50000 418.400000
7940 16169 9696 1 109.50000 418.400000
9297 16169 9696 1 109.50000 418.400000
2598 16170 7439 1 109.50000 418.400000
2598 16170 10101 1 109.50000 418.400000
2598 16170 11120 1 109.50000 418.400000
7439 16170 10101 1 109.50000 418.400000
7439 16170 11120 1 109.50000 418.400000
10101 16170 11120 1 109.50000 418.400000
3282 16171 4561 1 109.50000 418.400000
3282 16171 9683 1 109.50000 418.400000
3282 16171 11085 1 109.50000 418.400000
4561 16171 9683 1 109.50000 418.400000
4561 16171 11085 1 109.50000 418.400000
9683 16171 11085 1 109.50000 418.400000
1587 16172 1588 1 109.50000 418.400000
1587 16172 9166 1 109.50000 418.400000
1587 16172 11089 1 109.50000 418.400000
1588 16172 9166 1 109.50000 418.400000
1588 16172 11089 1 109.50000 418.400000
9166 16172 11089 1 109.50000 418.400000
5649 16173 7718 1 109.50000 418.400000
5649 16173 8206 1 109.50000 418.400000
5649 16173 9620 1 109.50000 418.400000
7718 16173 8206 1 109.50000 418.400000
7718 16173 9620 1 109.50000 418.400000
8206 16173 9620 1 109.50000 418.400000
3129 16174 7347 1 109.50000 418.400000
3129 16174 10931 1 109.50000 418.400000
3129 16174 10985 1 109.50000 418.400000
7347 16174 10931 1 109.50000 418.400000
7347 16174 10985 1 109.50000 418.400000
10931 16174 10985 1 109.50000 418.400000
9319 16175 9776 1 109.50000 418.400000
9319 16175 10375 1 109.50000 418.400000
9319 16175 11133 1 109.50000 418.400000
9776 16175 10375 1 109.50000 418.400000
9776 16175 11133 1 109.50000 418.400000
10375 16175 11133 1 109.50000 418.400000
7757 16176 10606 1 109.50000 418.400000
7757 16176 10742 1 109.50000 418.400000
7757 16176 11125 1 109.50000 418.400000
10606 16176 10742 1 109.50000 418.400000
10606 16176 11125 1 109.50000 418.400000
10742 16176 11125 1 109.50000 418.400000
3735 16177 9853 1 109.50000 418.400000
3735 16177 10593 1 109.50000 418.400000
3735 16177 10991 1 109.50000 418.400000
9853 16177 10593 1 109.50000 418.400000
9853 16177 10991 1 109.50000 418.400000
10593 16177 10991 1 109.50000 418.400000
2078 16178 3750 1 109.50000 418.400000
2078 16178 10368 1 109.50000 418.400000
2078 16178 10703 1 109.50000 418.400000
3750 16178 10368 1 109.50000 418.400000
3750 16178 10703 1 109.50000 418.400000
10368 16178 10703 1 109.50000 418.400000
210 16179 6704 1 109.50000 418.400000
210 16179 9070 1 109.50000 418.400000
210 16179 9127 1 109.50000 418.400000
6704 16179 9070 1 109.50000 418.400000
6704 16179 9127 1 109.50000 418.400000
9070 16179 9127 1 109.50000 418.400000
562 16180 7447 1 109.50000 418.400000
562 16180 8946 1 109.50000 418.400000
562 16180 9577 1 109.50000 418.400000
7447 16180 8946 1 109.50000 418.400000
7447 16180 9577 1 109.50000 418.400000
8946 16180 9577 1 109.50000 418.400000
2125 16181 4502 1 109.50000 418.400000
2125 16181 6562 1 109.50000 418.400000
2125 16181 6867 1 109.50000 418.400000
4502 16181 6562 1 109.50000 418.400000
4502 16181 6867 1 109.50000 418.400000
6562 16181 6867 1 109.50000 418.400000
3047 16182 6001 1 109.50000 418.400000
3047 16182 8554 1 109.50000 418.400000
3047 16182 10888 1 109.50000 418.400000
6001 16182 8554 1 109.50000 418.400000
6001 16182 10888 1 109.50000 418.400000
8554 16182 10888 1 109.50000 418.400000
1153 16183 6016 1 109.50000 418.400000
1153 16183 11101 1 109.50000 418.400000
1153 16183 11124 1 109.50000 418.400000
6016 16183 11101 1 109.50000 418.400000
6016 16183 11124 1 109.50000 418.400000
11101 16183 11124 1 109.50000 418.400000
5358 16184 9748 1 109.50000 418.400000
5358 16184 10497 1 109.50000 418.400000
5358 16184 11091 1 109.50000 418.400000
9748 16184 10497 1 109.50000 418.400000
9748 16184 11091 1 109.50000 418.400000
10497 16184 11091 1 109.50000 418.400000
4667 16185 6066 1 109.50000 418.400000
4667 16185 8216 1 109.50000 418.400000
4667 16185 8925 1 109.50000 418.400000
6066 16185 8216 1 109.50000 418.400000
6066 16185 8925 1 109.50000 418.400000
8216 16185 8925 1 109.50000 418.400000
9812 16186 10052 1 109.50000 418.400000
9812 16186 11064 1 109.50000 418.400000
9812 16186 11134 1 109.50000 418.400000
10052 16186 11064 1 109.50000 418.400000
10052 16186 11134 1 109.50000 418.400000
11064 16186 11134 1 109.50000 418.400000
662 16187 663 1 109.50000 418.400000
662 16187 6282 1 109.50000 418.400000
662 16187 7349 1 109.50000 418.400000
663 16187 6282 1 109.50000 418.400000
663 16187 7349 1 109.50000 418.400000
6282 16187 7349 1 109.50000 418.400000
313 16188 3016 1 109.50000 418.400000
313 16188 6103 1 109.50000 418.400000
313 16188 11135 1 109.50000 418.400000
3016 16188 6103 1 109.50000 418.400000
3016 16188 11135 1 109.50000 418.400000
6103 16188 11135 1 109.50000 418.400000
2556 16189 6329 1 109.50000 418.400000
2556 16189 10602 1 109.50000 418.400000
2556 16189 10953 1 109.50000 418.400000
6329 16189 10602 1 109.50000 418.400000
6329 16189 10953 1 109.50000 418.400000
10602 16189 10953 1 109.50000 418.400000
6050 16190 8783 1 109.50000 418.400000
6050 16190 8965 1 109.50000 418.400000
6050 16190 9693 1 109.50000 418.400000
8783 16190 8965 1 109.50000 418.400000
8783 16190 9693 1 109.50000 418.400000
8965 16190 9693 1 109.50000 418.400000
4489 16191 6242 1 109.50000 418.400000
4489 16191 6880 1 109.50000 418.400000
4489 16191 9749 1 109.50000 418.400000
6242 16191 6880 1 109.50000 418.400000
6242 16191 9749 1 109.50000 418.400000
6880 16191 9749 1 109.50000 418.400000
7535 16192 8020 1 109.50000 418.400000
7535 16192 10781 1 109.50000 418.400000
7535 16192 11056 1 109.50000 418.400000
8020 16192 10781 1 109.50000 418.400000
8020 16192 11056 1 109.50000 418.400000
10781 16192 11056 1 109.50000 418.400000
8 16193 2247 1 109.50000 418.400000
8 16193 5024 1 109.50000 418.400000
8 16193 9052 1 109.50000 418.400000
2247 16193 5024 1 109.50000 418.400000
2247 16193 9052 1 109.50000 418.400000
5024 16193 9052 1 109.50000 418.400000
3921 16194 4342 1 109.50000 418.400000
3921 16194 10695 1 109.50000 418.400000
3921 16194 10849 1 109.50000 418.400000
4342 16194 10695 1 109.50000 418.400000
4342 16194 10849 1 109.50000 418.400000
10695 16194 10849 1 109.50000 418.400000
3538 16195 6348 1 109.50000 418.400000
3538 16195 7868 1 109.50000 418.400000
3538 16195 11121 1 109.50000 418.400000
6348 16195 7868 1 109.50000 418.400000
6348 16195 11121 1 109.50000 418.400000
7868 16195 11121 1 109.50000 418.400000
3562 16196 5652 1 109.50000 418.400000
3562 16196 7962 1 109.50000 418.400000
3562 16196 11094 1 109.50000 418.400000
5652 16196 7962 1 109.50000 418.400000
5652 16196 11094 1 109.50000 418.400000
7962 16196 11094 1 109.50000 418.400000
526 16197 8467 1 109.50000 418.400000
526 16197 9195 1 109.50000 418.400000
526 16197 10056 1 109.50000 418.400000
8467 16197 9195 1 109.50000 418.400000
8467 16197 10056 1 109.50000 418.400000
9195 16197 10056 1 109.50000 418.400000
2725 16198 3394 1 109.50000 418.400000
2725 16198 8850 1 109.50000 418.400000
2725 16198 10805 1 109.50000 418.400000
3394 16198 8850 1 109.50000 418.400000
3394 16198 10805 1 109.50000 418.400000
8850 16198 10805 1 109.50000 418.400000
330 16199 996 1 109.50000 418.400000
330 16199 10347 1 109.50000 418.400000
330 16199 10959 1 109.50000 418.400000
996 16199 10347 1 109.50000 418.400000
996 16199 10959 1 109.50000 418.400000
10347 16199 10959 1 109.50000 418.400000
106 16200 7827 1 109.50000 418.400000
106 16200 10374 1 109.50000 418.400000
106 16200 10880 1 109.50000 418.400000
7827 16200 10374 1 109.50000 418.400000
7827 16200 10880 1 109.50000 418.400000
10374 16200 10880 1 109.50000 418.400000
2413 16201 7984 1 109.50000 418.400000
2413 16201 10614 1 109.50000 418.400000
2413 16201 11058 1 109.50000 418.400000
7984 16201 10614 1 109.50000 418.400000
7984 16201 11058 1 109.50000 418.400000
10614 16201 11058 1 109.50000 418.400000
9293 16202 9484 1 109.50000 418.400000
9293 16202 9516 1 109.50000 418.400000
9293 16202 10894 1 109.50000 418.400000
9484 16202 9516 1 109.50000 418.400000
9484 16202 10894 1 109.50000 418.400000
9516 16202 10894 1 109.50000 418.400000
403 16203 9687 1 109.50000 418.400000
403 16203 9688 1 109.50000 418.400000
403 16203 10600 1 109.50000 418.400000
9687 16203 9688 1 109.50000 418.400000
9687 16203 10600 1 109.50000 418.400000
9688 16203 10600 1 109.50000 418.400000
8930 16204 9281 1 109.50000 418.400000
8930 16204 9385 1 109.50000 418.400000
8930 16204 10817 1 109.50000 418.400000
9281 16204 9385 1 109.50000 418.400000
9281 16204 10817 1 109.50000 418.400000
9385 16204 10817 1 109.50000 418.400000
2215 16205 7755 1 109.50000 418.400000
2215 16205 9211 1 109.50000 418.400000
2215 16205 10590 1 109.50000 418.400000
7755 16205 9211 1 109.50000 418.400000
7755 16205 10590 1 109.50000 418.400000
9211 16205 10590 1 109.50000 418.400000
3458 16206 10713 1 109.50000 418.400000
3458 16206 11047 1 109.50000 418.400000
3458 16206 11108 1 109.50000 418.400000
10713 16206 11047 1 109.50000 418.400000
10713 16206 11108 1 109.50000 418.400000
11047 16206 11108 1 109.50000 418.400000
1968 16207 2771 1 109.50000 418.400000
1968 16207 7055 1 109.50000 418.400000
1968 16207 9322 1 109.50000 418.400000
2771 16207 7055 1 109.50000 418.400000
2771 16207 9322 1 109.50000 418.400000
7055 16207 9322 1 109.50000 418.400000
7697 16208 7699 1 109.50000 418.400000
7697 16208 9436 1 109.50000 418.400000
7697 16208 9634 1 109.50000 418.400000
7699 16208 9436 1 109.50000 418.400000
7699 16208 9634 1 109.50000 418.400000
9436 16208 9634 1 109.50000 418.400000
3901 16209 9639 1 109.50000 418.400000
3901 16209 10757 1 109.50000 418.400000
3901 16209 11039 1 109.50000 418.400000
9639 16209 10757 1 109.50000 418.400000
9639 16209 11039 1 109.50000 418.400000
10757 16209 11039 1 109.50000 418.400000
7240 16210 7304 1 109.50000 418.400000
7240 16210 8480 1 109.50000 418.400000
7240 16210 11024 1 109.50000 418.400000
7304 16210 8480 1 109.50000 418.400000
7304 16210 11024 1 109.50000 418.400000
8480 16210 11024 1 109.50000 418.400000
4218 16211 7824 1 109.50000 418.400000
4218 16211 9986 1 109.50000 418.400000
4218 16211 10559 1 109.50000 418.400000
7824 16211 9986 1 109.50000 418.400000
7824 16211 10559 1 109.50000 418.400000
9986 16211 10559 1 109.50000 418.400000
2192 16212 2653 1 109.50000 418.400000
2192 16212 8291 1 109.50000 418.400000
2192 16212 10837 1 109.50000 418.400000
2653 16212 8291 1 109.50000 418.400000
2653 16212 10837 1 109.50000 418.400000
8291 16212 10837 1 109.50000 418.400000
1263 16213 7341 1 109.50000 418.400000
1263 16213 8672 1 109.50000 418.400000
1263 16213 10554 1 109.50000 418.400000
7341 16213 8672 1 109.50000 418.400000
7341 16213 10554 1 109.50000 418.400000
8672 16213 10554 1 109.50000 418.400000
1869 16214 8017 1 109.50000 418.400000
1869 16214 8627 1 109.50000 418.400000
1869 16214 11111 1 109.50000 418.400000
8017 16214 8627 1 109.50000 418.400000
8017 16214 11111 1 109.50000 418.400000
8627 16214 11111 1 109.50000 418.400000
7353 16215 8230 1 109.50000 418.400000
7353 16215 10465 1 109.50000 418.400000
7353 16215 11136 1 109.50000 418.400000
8230 16215 10465 1 109.50000 418.400000
8230 16215 11136 1 109.50000 418.400000
10465 16215 11136 1 109.50000 418.400000
3710 16216 10743 1 109.50000 418.400000
3710 16216 10873 1 109.50000 418.400000
3710 16216 10988 1 109.50000 418.400000
10743 16216 10873 1 109.50000 418.400000
10743 16216 10988 1 109.50000 418.400000
10873 16216 10988 1 109.50000 418.400000
1866 16217 2606 1 109.50000 418.400000
1866 16217 2607 1 109.50000 418.400000
1866 16217 11128 1 109.50000 418.400000
2606 16217 2607 1 109.50000 418.400000
2606 16217 11128 1 109.50000 418.400000
2607 16217 11128 1 109.50000 418.400000
3048 16218 8030 1 109.50000 418.400000
3048 16218 8715 1 109.50000 418.400000
3048 16218 11116 1 109.50000 418.400000
8030 16218 8715 1 109.50000 418.400000
8030 16218 11116 1 109.50000 418.400000
8715 16218 11116 1 109.50000 418.400000
2186 16219 10689 1 109.50000 418.400000
2186 16219 10853 1 109.50000 418.400000
2186 16219 11016 1 109.50000 418.400000
10689 16219 10853 1 109.50000 418.400000
10689 16219 11016 1 109.50000 418.400000
10853 16219 11016 1 109.50000 418.400000
68 16220 121 1 109.50000 418.400000
68 16220 9771 1 109.50000 418.400000
68 16220 11137 1 109.50000 418.400000
121 16220 9771 1 109.50000 418.400000
121 16220 11137 1 109.50000 418.400000
9771 16220 11137 1 109.50000 418.400000
414 16221 493 1 109.50000 418.400000
414 16221 3746 1 109.50000 418.400000
414 16221 4109 1 109.50000 418.400000
493 16221 3746 1 109.50000 418.400000
493 16221 4109 1 109.50000 418.400000
3746 16221 4109 1 109.50000 418.400000
266 16222 8394 1 109.50000 418.400000
266 16222 8905 1 109.50000 418.400000
266 16222 10830 1 109.50000 418.400000
8394 16222 8905 1 109.50000 418.400000
8394 16222 10830 1 109.50000 418.400000
8905 16222 10830 1 109.50000 418.400000
4570 16223 9007 1 109.50000 418.400000
4570 16223 9580 1 109.50000 418.400000
4570 16223 11117 1 109.50000 418.400000
9007 16223 9580 1 109.50000 418.400000
9007 16223 11117 1 109.50000 418.400000
9580 16223 11117 1 109.50000 418.400000
4660 16224 5456 1 109.50000 418.400000
4660 16224 5517 1 109.50000 418.400000
4660 16224 8952 1 109.50000 418.400000
5456 16224 5517 1 109.50000 418.400000
5456 16224 8952 1 109.50000 418.400000
5517 16224 8952 1 109.50000 418.400000
4037 16225 5590 1 109.50000 418.400000
4037 16225 9133 1 109.50000 418.400000
4037 16225 9534 1 109.50000 418.400000
5590 16225 9133 1 109.50000 418.400000
5590 16225 9534 1 109.50000 418.400000
9133 16225 9534 1 109.50000 418.400000
5049 16226 5050 1 109.50000 418.400000
5049 16226 6764 1 109.50000 418.400000
5049 16226 7554 1 109.50000 418.400000
5050 16226 6764 1 109.50000 418.400000
5050 16226 7554 1 109.50000 418.400000
6764 16226 7554 1 109.50000 418.400000
6809 16227 7056 1 109.50000 418.400000
6809 16227 7794 1 109.50000 418.400000
6809 16227 10152 1 109.50000 418.400000
7056 16227 7794 1 109.50000 418.400000
7056 16227 10152 1 109.50000 418.400000
7794 16227 10152 1 109.50000 418.400000
2743 16228 3812 1 109.50000 418.400000
2743 16228 8479 1 109.50000 418.400000
2743 16228 10255 1 109.50000 418.400000
3812 16228 8479 1 109.50000 418.400000
3812 16228 10255 1 109.50000 418.400000
8479 16228 10255 1 109.50000 418.400000
3776 16229 6735 1 109.50000 418.400000
3776 16229 10626 1 109.50000 418.400000
3776 16229 11244 1 109.50000 418.400000
6735 16229 10626 1 109.50000 418.400000
6735 16229 11244 1 109.50000 418.400000
10626 16229 11244 1 109.50000 418.400000
6838 16230 7425 1 109.50000 418.400000
6838 16230 10449 1 109.50000 418.400000
6838 16230 10912 1 109.50000 418.400000
7425 16230 10449 1 109.50000 418.400000
7425 16230 10912 1 109.50000 418.400000
10449 16230 10912 1 109.50000 418.400000
3738 16231 4384 1 109.50000 418.400000
3738 16231 5974 1 109.50000 418.400000
3738 16231 11180 1 109.50000 418.400000
4384 16231 5974 1 109.50000 418.400000
4384 16231 11180 1 109.50000 418.400000
5974 16231 11180 1 109.50000 418.400000
1106 16232 5200 1 109.50000 418.400000
1106 16232 9078 1 109.50000 418.400000
1106 16232 11133 1 109.50000 418.400000
5200 16232 9078 1 109.50000 418.400000
5200 16232 11133 1 109.50000 418.400000
9078 16232 11133 1 109.50000 418.400000
3161 16233 5611 1 109.50000 418.400000
3161 16233 8406 1 109.50000 418.400000
3161 16233 10688 1 109.50000 418.400000
5611 16233 8406 1 109.50000 418.400000
5611 16233 10688 1 109.50000 418.400000
8406 16233 10688 1 109.50000 418.400000
2887 16234 8382 1 109.50000 418.400000
2887 16234 9886 1 109.50000 418.400000
2887 16234 11068 1 109.50000 418.400000
8382 16234 9886 1 109.50000 418.400000
8382 16234 11068 1 109.50000 418.400000
9886 16234 11068 1 109.50000 418.400000
1428 16235 2920 1 109.50000 418.400000
1428 16235 3069 1 109.50000 418.400000
1428 16235 9897 1 109.50000 418.400000
2920 16235 3069 1 109.50000 418.400000
2920 16235 9897 1 109.50000 418.400000
3069 16235 9897 1 109.50000 418.400000
4264 16236 9434 1 109.50000 418.400000
4264 16236 9854 1 109.50000 418.400000
4264 16236 11112 1 109.50000 418.400000
9434 16236 9854 1 109.50000 418.400000
9434 16236 11112 1 109.50000 418.400000
9854 16236 11112 1 109.50000 418.400000
7348 16237 7864 1 109.50000 418.400000
7348 16237 9885 1 109.50000 418.400000
7348 16237 10804 1 109.50000 418.400000
7864 16237 9885 1 109.50000 418.400000
7864 16237 10804 1 109.50000 418.400000
9885 16237 10804 1 109.50000 418.400000
4836 16238 8688 1 109.50000 418.400000
4836 16238 9253 1 109.50000 418.400000
4836 16238 9923 1 109.50000 418.400000
8688 16238 9253 1 109.50000 418.400000
8688 16238 9923 1 109.50000 418.400000
9253 16238 9923 1 109.50000 418.400000
4477 16239 6230 1 109.50000 418.400000
4477 16239 10274 1 109.50000 418.400000
4477 16239 11059 1 109.50000 418.400000
6230 16239 10274 1 109.50000 418.400000
6230 16239 11059 1 109.50000 418.400000
10274 16239 11059 1 109.50000 418.400000
7400 16240 7765 1 109.50000 418.400000
7400 16240 7790 1 109.50000 418.400000
7400 16240 10258 1 109.50000 418.400000
7765 16240 7790 1 109.50000 418.400000
7765 16240 10258 1 109.50000 418.400000
7790 16240 10258 1 109.50000 418.400000
7242 16241 10168 1 109.50000 418.400000
7242 16241 10183 1 109.50000 418.400000
7242 16241 11118 1 109.50000 418.400000
10168 16241 10183 1 109.50000 418.400000
10168 16241 11118 1 109.50000 418.400000
10183 16241 11118 1 109.50000 418.400000
1670 16242 5285 1 109.50000 418.400000
1670 16242 10180 1 109.50000 418.400000
1670 16242 10391 1 109.50000 418.400000
5285 16242 10180 1 109.50000 418.400000
5285 16242 10391 1 109.50000 418.400000
10180 16242 10391 1 109.50000 418.400000
1878 16243 4887 1 109.50000 418.400000
1878 16243 7927 1 109.50000 418.400000
1878 16243 8571 1 109.50000 418.400000
4887 16243 7927 1 109.50000 418.400000
4887 16243 8571 1 109.50000 418.400000
7927 16243 8571 1 109.50000 418.400000
1739 16244 1741 1 109.50000 418.400000
1739 16244 6036 1 109.50000 418.400000
1739 16244 11088 1 109.50000 418.400000
1741 16244 6036 1 109.50000 418.400000
1741 16244 11088 1 109.50000 418.400000
6036 16244 11088 1 109.50000 418.400000
9278 16245 10174 1 109.50000 418.400000
9278 16245 11019 1 109.50000 418.400000
9278 16245 11135 1 109.50000 418.400000
10174 16245 11019 1 109.50000 418.400000
10174 16245 11135 1 109.50000 418.400000
11019 16245 11135 1 109.50000 418.400000
77 16246 6088 1 109.50000 418.400000
77 16246 10869 1 109.50000 418.400000
77 16246 11105 1 109.50000 418.400000
6088 16246 10869 1 109.50000 418.400000
6088 16246 11105 1 109.50000 418.400000
10869 16246 11105 1 109.50000 418.400000
3275 16247 4647 1 109.50000 418.400000
3275 16247 9806 1 109.50000 418.400000
3275 16247 10886 1 109.50000 418.400000
4647 16247 9806 1 109.50000 418.400000
4647 16247 10886 1 109.50000 418.400000
9806 16247 10886 1 109.50000 418.400000
712 16248 8255 1 109.50000 418.400000
712 16248 8336 1 109.50000 418.400000
712 16248 10881 1 109.50000 418.400000
8255 16248 8336 1 109.50000 418.400000
8255 16248 10881 1 109.50000 418.400000
8336 16248 10881 1 109.50000 418.400000
83 16249 9429 1 109.50000 418.400000
83 16249 9716 1 109.50000 418.400000
83 16249 10157 1 109.50000 418.400000
9429 16249 9716 1 109.50000 418.400000
9429 16249 10157 1 109.50000 418.400000
9716 16249 10157 1 109.50000 418.400000
10280 16250 10298 1 109.50000 418.400000
10280 16250 10309 1 109.50000 418.400000
10280 16250 10748 1 109.50000 418.400000
10298 16250 10309 1 109.50000 418.400000
10298 16250 10748 1 109.50000 418.400000
10309 16250 10748 1 109.50000 418.400000
6076 16251 7112 1 109.50000 418.400000
6076 16251 8312 1 109.50000 418.400000
6076 16251 10939 1 109.50000 418.400000
7112 16251 8312 1 109.50000 418.400000
7112 16251 10939 1 109.50000 418.400000
8312 16251 10939 1 109.50000 418.400000
7616 16252 10226 1 109.50000 418.400000
7616 16252 10896 1 109.50000 418.400000
7616 16252 10961 1 109.50000 418.400000
10226 16252 10896 1 109.50000 418.400000
10226 16252 10961 1 109.50000 418.400000
10896 16252 10961 1 109.50000 418.400000
2389 16253 10037 1 109.50000 418.400000
2389 16253 11131 1 109.50000 418.400000
2389 16253 11132 1 109.50000 418.400000
10037 16253 11131 1 109.50000 418.400000
10037 16253 11132 1 109.50000 418.400000
11131 16253 11132 1 109.50000 418.400000
614 16254 7832 1 109.50000 418.400000
614 16254 7833 1 109.50000 418.400000
614 16254 10256 1 109.50000 418.400000
7832 16254 7833 1 109.50000 418.400000
7832 16254 10256 1 109.50000 418.400000
7833 16254 10256 1 109.50000 418.400000
5117 16255 5513 1 109.50000 418.400000
5117 16255 8971 1 109.50000 418.400000
5117 16255 10350 1 109.50000 418.400000
5513 16255 8971 1 109.50000 418.400000
5513 16255 10350 1 109.50000 418.400000
8971 16255 10350 1 109.50000 418.400000
8225 16256 10196 1 109.50000 418.400000
8225 16256 10573 1 109.50000 418.400000
8225 16256 11015 1 109.50000 418.400000
10196 16256 10573 1 109.50000 418.400000
10196 16256 11015 1 109.50000 418.400000
10573 16256 11015 1 109.50000 418.400000
990 16257 3918 1 109.50000 418.400000
990 16257 5487 1 109.50000 418.400000
990 16257 7552 1 109.50000 418.400000
3918 16257 5487 1 109.50000 418.400000
3918 16257 7552 1 109.50000 418.400000
5487 16257 7552 1 109.50000 418.400000
2823 16258 3283 1 109.50000 418.400000
2823 16258 8524 1 109.50000 418.400000
2823 16258 8987 1 109.50000 418.400000
3283 16258 8524 1 109.50000 418.400000
3283 16258 8987 1 109.50000 418.400000
8524 16258 8987 1 109.50000 418.400000
6677 16259 10059 1 109.50000 418.400000
6677 16259 11033 1 109.50000 418.400000
6677 16259 11099 1 109.50000 418.400000
10059 16259 11033 1 109.50000 418.400000
10059 16259 11099 1 109.50000 418.400000
11033 16259 11099 1 109.50000 418.400000
2663 16260 6355 1 109.50000 418.400000
2663 16260 6959 1 109.50000 418.400000
2663 16260 8963 1 109.50000 418.400000
6355 16260 6959 1 109.50000 418.400000
6355 16260 8963 1 109.50000 418.400000
6959 16260 8963 1 109.50000 418.400000
660 16261 1902 1 109.50000 418.400000
660 16261 10934 1 109.50000 418.400000
660 16261 11134 1 109.50000 418.400000
1902 16261 10934 1 109.50000 418.400000
1902 16261 11134 1 109.50000 418.400000
10934 16261 11134 1 109.50000 418.400000
2923 16262 5081 1 109.50000 418.400000
2923 16262 5436 1 109.50000 418.400000
2923 16262 9475 1 109.50000 418.400000
5081 16262 5436 1 109.50000 418.400000
5081 16262 9475 1 109.50000 418.400000
5436 16262 9475 1 109.50000 418.400000
5540 16263 8923 1 109.50000 418.400000
5540 16263 10632 1 109.50000 418.400000
5540 16263 11198 1 109.50000 418.400000
8923 16263 10632 1 109.50000 418.400000
8923 16263 11198 1 109.50000 418.400000
10632 16263 11198 1 109.50000 418.400000
1776 16264 3011 1 109.50000 418.400000
1776 16264 8518 1 109.50000 418.400000
1776 16264 10947 1 109.50000 418.400000
3011 16264 8518 1 109.50000 418.400000
3011 16264 10947 1 109.50000 418.400000
8518 16264 10947 1 109.50000 418.400000
2644 16265 3986 1 109.50000 418.400000
2644 16265 6752 1 109.50000 418.400000
2644 16265 9439 1 109.50000 418.400000
3986 16265 6752 1 109.50000 418.400000
3986 16265 9439 1 109.50000 418.400000
6752 16265 9439 1 109.50000 418.400000
1074 16266 1661 1 109.50000 418.400000
1074 16266 4448 1 109.50000 418.400000
1074 16266 11036 1 109.50000 418.400000
1661 16266 4448 1 109.50000 418.400000
1661 16266 11036 1 109.50000 418.400000
4448 16266 11036 1 109.50000 418.400000
4661 16267 5106 1 109.50000 418.400000
4661 16267 7454 1 109.50000 418.400000
4661 16267 8268 1 109.50000 418.400000
5106 16267 7454 1 109.50000 418.400000
5106 16267 8268 1 109.50000 418.400000
7454 16267 8268 1 109.50000 418.400000
3485 16268 3536 1 109.50000 418.400000
3485 16268 4290 1 109.50000 418.400000
3485 16268 10360 1 109.50000 418.400000
3536 16268 4290 1 109.50000 418.400000
3536 16268 10360 1 109.50000 418.400000
4290 16268 10360 1 109.50000 418.400000
177 16269 1271 1 109.50000 418.400000
177 16269 1805 1 109.50000 418.400000
177 16269 3357 1 109.50000 418.400000
1271 16269 1805 1 109.50000 418.400000
1271 16269 3357 1 109.50000 418.400000
1805 16269 3357 1 109.50000 418.400000
948 16270 6340 1 109.50000 418.400000
948 16270 8958 1 109.50000 418.400000
948 16270 10292 1 109.50000 418.400000
6340 16270 8958 1 109.50000 418.400000
6340 16270 10292 1 109.50000 418.400000
8958 16270 10292 1 109.50000 418.400000
645 16271 2721 1 109.50000 418.400000
645 16271 6714 1 109.50000 418.400000
645 16271 9793 1 109.50000 418.400000
2721 16271 6714 1 109.50000 418.400000
2721 16271 9793 1 109.50000 418.400000
6714 16271 9793 1 109.50000 418.400000
5591 16272 7331 1 109.50000 418.400000
5591 16272 10202 1 109.50000 418.400000
5591 16272 11136 1 109.50000 418.400000
7331 16272 10202 1 109.50000 418.400000
7331 16272 11136 1 109.50000 418.400000
10202 16272 11136 1 109.50000 418.400000
1447 16273 1824 1 109.50000 418.400000
1447 16273 2794 1 109.50000 418.400000
1447 16273 3201 1 109.50000 418.400000
1824 16273 2794 1 109.50000 418.400000
1824 16273 3201 1 109.50000 418.400000
2794 16273 3201 1 109.50000 418.400000
9165 16274 10229 1 109.50000 418.400000
9165 16274 10402 1 109.50000 418.400000
9165 16274 10800 1 109.50000 418.400000
10229 16274 10402 1 109.50000 418.400000
10229 16274 10800 1 109.50000 418.400000
10402 16274 10800 1 109.50000 418.400000
8160 16275 9522 1 109.50000 418.400000
8160 16275 10244 1 109.50000 418.400000
8160 16275 11119 1 109.50000 418.400000
9522 16275 10244 1 109.50000 418.400000
9522 16275 11119 1 109.50000 418.400000
10244 16275 11119 1 109.50000 418.400000
4866 16276 5887 1 109.50000 418.400000
4866 16276 7830 1 109.50000 418.400000
4866 16276 10996 1 109.50000 418.400000
5887 16276 7830 1 109.50000 418.400000
5887 16276 10996 1 109.50000 418.400000
7830 16276 10996 1 109.50000 418.400000
3238 16277 4431 1 109.50000 418.400000
3238 16277 9080 1 109.50000 418.400000
3238 16277 10297 1 109.50000 418.400000
4431 16277 9080 1 109.50000 418.400000
4431 16277 10297 1 109.50000 418.400000
9080 16277 10297 1 109.50000 418.400000
8273 16278 9095 1 109.50000 418.400000
8273 16278 9418 1 109.50000 418.400000
8273 16278 10344 1 109.50000 418.400000
9095 16278 9418 1 109.50000 418.400000
9095 16278 10344 1 109.50000 418.400000
9418 16278 10344 1 109.50000 418.400000
5071 16279 6175 1 109.50000 418.400000
5071 16279 6178 1 109.50000 418.400000
5071 16279 6787 1 109.50000 418.400000
6175 16279 6178 1 109.50000 418.400000
6175 16279 6787 1 109.50000 418.400000
6178 16279 6787 1 109.50000 418.400000
16280 16281 16282 1 119.8800511 375.723200
16280 16281 16290 1 119.8800511 375.723200
16282 16281 16290 1 120.0200517 532.790560
16281 16282 16283 1 121.3800518 83.010560
16281 16282 16284 1 120.0200517 532.790560
16283 16282 16284 1 121.3800518 83.010560
4325 16283 4326 1 109.50000 418.400000
4325 16283 16282 1 103.70004 836.800000
4325 16283 16292 1 109.50000 418.400000
4326 16283 16282 1 103.70004 836.800000
4326 16283 16292 1 109.50000 418.400000
16282 16283 16292 1 103.70004 1034.033760
16282 16284 16285 1 119.8800511 375.723200
16282 16284 16286 1 120.0200517 532.790560
16285 16284 16286 1 119.8800511 375.723200
16284 16286 16287 1 119.8800511 375.723200
16284 16286 16288 1 120.0200517 532.790560
16287 16286 16288 1 119.8800511 375.723200
16286 16288 16289 1 119.8800511 375.723200
16286 16288 16290 1 120.0200517 532.790560
16289 16288 16290 1 119.8800511 375.723200
16281 16290 16288 1 120.0200517 532.790560
16281 16290 16291 1 119.8800511 375.723200
16288 16290 16291 1 119.8800511 375.723200
16283 16292 16293 1 115.00000 209.200000
16294 16295 16296 1 119.8800511 375.723200
16294 16295 16304 1 119.8800511 375.723200
16296 16295 16304 1 120.0200517 532.790560
16295 16296 16297 1 121.3800518 83.010560
16295 16296 16298 1 120.0200517 532.790560
16297 16296 16298 1 121.3800518 83.010560
603 16297 7772 1 109.50000 418.400000
603 16297 16296 1 103.70004 836.800000
603 16297 16306 1 109.50000 418.400000
7772 16297 16296 1 103.70004 836.800000
7772 16297 16306 1 109.50000 418.400000
16296 16297 16306 1 103.70004 1034.033760
16296 16298 16299 1 119.8800511 375.723200
16296 16298 16300 1 120.0200517 532.790560
16299 16298 16300 1 119.8800511 375.723200
16298 16300 16301 1 119.8800511 375.723200
16298 16300 16302 1 120.0200517 532.790560
16301 16300 16302 1 119.8800511 375.723200
16300 16302 16303 1 119.8800511 375.723200
16300 16302 16304 1 120.0200517 532.790560
16303 16302 16304 1 119.8800511 375.723200
16295 16304 16302 1 120.0200517 532.790560
16295 16304 16305 1 119.8800511 375.723200
16302 16304 16305 1 119.8800511 375.723200
16297 16306 16307 1 115.00000 209.200000
16308 16309 16310 1 119.8800511 375.723200
16308 16309 16318 1 119.8800511 375.723200
16310 16309 16318 1 120.0200517 532.790560
16309 16310 16311 1 121.3800518 83.010560
16309 16310 16312 1 120.0200517 532.790560
16311 16310 16312 1 121.3800518 83.010560
121 16311 122 1 109.50000 418.400000
121 16311 16310 1 103.70004 836.800000
121 16311 16320 1 109.50000 418.400000
122 16311 16310 1 103.70004 836.800000
122 16311 16320 1 109.50000 418.400000
16310 16311 16320 1 103.70004 1034.033760
16310 16312 16313 1 119.8800511 375.723200
16310 16312 16314 1 120.0200517 532.790560
16313 16312 16314 1 119.8800511 375.723200
16312 16314 16315 1 119.8800511 375.723200
16312 16314 16316 1 120.0200517 532.790560
16315 16314 16316 1 119.8800511 375.723200
16314 16316 16317 1 119.8800511 375.723200
16314 16316 16318 1 120.0200517 532.790560
16317 16316 16318 1 119.8800511 375.723200
16309 16318 16316 1 120.0200517 532.790560
16309 16318 16319 1 119.8800511 375.723200
16316 16318 16319 1 119.8800511 375.723200
16311 16320 16321 1 115.00000 209.200000
16322 16323 16324 1 119.8800511 375.723200
16322 16323 16332 1 119.8800511 375.723200
16324 16323 16332 1 120.0200517 532.790560
16323 16324 16325 1 121.3800518 83.010560
16323 16324 16326 1 120.0200517 532.790560
16325 16324 16326 1 121.3800518 83.010560
1481 16325 3644 1 109.50000 418.400000
1481 16325 16324 1 103.70004 836.800000
1481 16325 16334 1 109.50000 418.400000
3644 16325 16324 1 103.70004 836.800000
3644 16325 16334 1 109.50000 418.400000
16324 16325 16334 1 103.70004 1034.033760
16324 16326 16327 1 119.8800511 375.723200
16324 16326 16328 1 120.0200517 532.790560
16327 16326 16328 1 119.8800511 375.723200
16326 16328 16329 1 119.8800511 375.723200
16326 16328 16330 1 120.0200517 532.790560
16329 16328 16330 1 119.8800511 375.723200
16328 16330 16331 1 119.8800511 375.723200
16328 16330 16332 1 120.0200517 532.790560
16331 16330 16332 1 119.8800511 375.723200
16323 16332 16330 1 120.0200517 532.790560
16323 16332 16333 1 119.8800511 375.723200
16330 16332 16333 1 119.8800511 375.723200
16325 16334 16335 1 115.00000 209.200000
16336 16337 16338 1 119.8800511 375.723200
16336 16337 16346 1 119.8800511 375.723200
16338 16337 16346 1 120.0200517 532.790560
16337 16338 16339 1 121.3800518 83.010560
16337 16338 16340 1 120.0200517 532.790560
16339 16338 16340 1 121.3800518 83.010560
3223 16339 3224 1 109.50000 418.400000
3223 16339 16338 1 103.70004 836.800000
3223 16339 16348 1 109.50000 418.400000
3224 16339 16338 1 103.70004 836.800000
3224 16339 16348 1 109.50000 418.400000
16338 16339 16348 1 103.70004 1034.033760
16338 16340 16341 1 119.8800511 375.723200
16338 16340 16342 1 120.0200517 532.790560
16341 16340 16342 1 119.8800511 375.723200
16340 16342 16343 1 119.8800511 375.723200
16340 16342 16344 1 120.0200517 532.790560
16343 16342 16344 1 119.8800511 375.723200
16342 16344 16345 1 119.8800511 375.723200
16342 16344 16346 1 120.0200517 532.790560
16345 16344 16346 1 119.8800511 375.723200
16337 16346 16344 1 120.0200517 532.790560
16337 16346 16347 1 119.8800511 375.723200
16344 16346 16347 1 119.8800511 375.723200
16339 16348 16349 1 115.00000 209.200000
16350 16351 16352 1 119.8800511 375.723200
16350 16351 16360 1 119.8800511 375.723200
16352 16351 16360 1 120.0200517 532.790560
16351 16352 16353 1 121.3800518 83.010560
16351 16352 16354 1 120.0200517 532.790560
16353 16352 16354 1 121.3800518 83.010560
6492 16353 10307 1 109.50000 418.400000
6492 16353 16352 1 103.70004 836.800000
6492 16353 16362 1 109.50000 418.400000
10307 16353 16352 1 103.70004 836.800000
10307 16353 16362 1 109.50000 418.400000
16352 16353 16362 1 103.70004 1034.033760
16352 16354 16355 1 119.8800511 375.723200
16352 16354 16356 1 120.0200517 532.790560
16355 16354 16356 1 119.8800511 375.723200
16354 16356 16357 1 119.8800511 375.723200
16354 16356 16358 1 120.0200517 532.790560
16357 16356 16358 1 119.8800511 375.723200
16356 16358 16359 1 119.8800511 375.723200
16356 16358 16360 1 120.0200517 532.790560
16359 16358 16360 1 119.8800511 375.723200
16351 16360 16358 1 120.0200517 532.790560
16351 16360 16361 1 119.8800511 375.723200
16358 16360 16361 1 119.8800511 375.723200
16353 16362 16363 1 115.00000 209.200000
16364 16365 16366 1 119.8800511 375.723200
16364 16365 16374 1 119.8800511 375.723200
16366 16365 16374 1 120.0200517 532.790560
16365 16366 16367 1 121.3800518 83.010560
16365 16366 16368 1 120.0200517 532.790560
16367 16366 16368 1 121.3800518 83.010560
7813 16367 10355 1 109.50000 418.400000
7813 16367 16366 1 103.70004 836.800000
7813 16367 16376 1 109.50000 418.400000
10355 16367 16366 1 103.70004 836.800000
10355 16367 16376 1 109.50000 418.400000
16366 16367 16376 1 103.70004 1034.033760
16366 16368 16369 1 119.8800511 375.723200
16366 16368 16370 1 120.0200517 532.790560
16369 16368 16370 1 119.8800511 375.723200
16368 16370 16371 1 119.8800511 375.723200
16368 16370 16372 1 120.0200517 532.790560
16371 16370 16372 1 119.8800511 375.723200
16370 16372 16373 1 119.8800511 375.723200
16370 16372 16374 1 120.0200517 532.790560
16373 16372 16374 1 119.8800511 375.723200
16365 16374 16372 1 120.0200517 532.790560
16365 16374 16375 1 119.8800511 375.723200
16372 16374 16375 1 119.8800511 375.723200
16367 16376 16377 1 115.00000 209.200000
16378 16379 16380 1 119.8800511 375.723200
16378 16379 16388 1 119.8800511 375.723200
16380 16379 16388 1 120.0200517 532.790560
16379 16380 16381 1 121.3800518 83.010560
16379 16380 16382 1 120.0200517 532.790560
16381 16380 16382 1 121.3800518 83.010560
1969 16381 3039 1 109.50000 418.400000
1969 16381 16380 1 103.70004 836.800000
1969 16381 16390 1 109.50000 418.400000
3039 16381 16380 1 103.70004 836.800000
3039 16381 16390 1 109.50000 418.400000
16380 16381 16390 1 103.70004 1034.033760
16380 16382 16383 1 119.8800511 375.723200
16380 16382 16384 1 120.0200517 532.790560
16383 16382 16384 1 119.8800511 375.723200
16382 16384 16385 1 119.8800511 375.723200
16382 16384 16386 1 120.0200517 532.790560
16385 16384 16386 1 119.8800511 375.723200
16384 16386 16387 1 119.8800511 375.723200
16384 16386 16388 1 120.0200517 532.790560
16387 16386 16388 1 119.8800511 375.723200
16379 16388 16386 1 120.0200517 532.790560
16379 16388 16389 1 119.8800511 375.723200
16386 16388 16389 1 119.8800511 375.723200
16381 16390 16391 1 115.00000 209.200000
16392 16393 16394 1 119.8800511 375.723200
16392 16393 16402 1 119.8800511 375.723200
16394 16393 16402 1 120.0200517 532.790560
16393 16394 16395 1 121.3800518 83.010560
16393 16394 16396 1 120.0200517 532.790560
16395 16394 16396 1 121.3800518 83.010560
3430 16395 3431 1 109.50000 418.400000
3430 16395 16394 1 103.70004 836.800000
3430 16395 16404 1 109.50000 418.400000
3431 16395 16394 1 103.70004 836.800000
3431 16395 16404 1 109.50000 418.400000
16394 16395 16404 1 103.70004 1034.033760
16394 16396 16397 1 119.8800511 375.723200
16394 16396 16398 1 120.0200517 532.790560
16397 16396 16398 1 119.8800511 375.723200
16396 16398 16399 1 119.8800511 375.723200
16396 16398 16400 1 120.0200517 532.790560
16399 16398 16400 1 119.8800511 375.723200
16398 16400 16401 1 119.8800511 375.723200
16398 16400 16402 1 120.0200517 532.790560
16401 16400 16402 1 119.8800511 375.723200
16393 16402 16400 1 120.0200517 532.790560
16393 16402 16403 1 119.8800511 375.723200
16400 16402 16403 1 119.8800511 375.723200
16395 16404 16405 1 115.00000 209.200000
16406 16407 16408 1 119.8800511 375.723200
16406 16407 16416 1 119.8800511 375.723200
16408 16407 16416 1 120.0200517 532.790560
16407 16408 16409 1 121.3800518 83.010560
16407 16408 16410 1 120.0200517 532.790560
16409 16408 16410 1 121.3800518 83.010560
7020 16409 9542 1 109.50000 418.400000
7020 16409 16408 1 103.70004 836.800000
7020 16409 16418 1 109.50000 418.400000
9542 16409 16408 1 103.70004 836.800000
9542 16409 16418 1 109.50000 418.400000
16408 16409 16418 1 103.70004 1034.033760
16408 16410 16411 1 119.8800511 375.723200
16408 16410 16412 1 120.0200517 532.790560
16411 16410 16412 1 119.8800511 375.723200
16410 16412 16413 1 119.8800511 375.723200
16410 16412 16414 1 120.0200517 532.790560
16413 16412 16414 1 119.8800511 375.723200
16412 16414 16415 1 119.8800511 375.723200
16412 16414 16416 1 120.0200517 532.790560
16415 16414 16416 1 119.8800511 375.723200
16407 16416 16414 1 120.0200517 532.790560
16407 16416 16417 1 119.8800511 375.723200
16414 16416 16417 1 119.8800511 375.723200
16409 16418 16419 1 115.00000 209.200000
16420 16421 16422 1 119.8800511 375.723200
16420 16421 16430 1 119.8800511 375.723200
16422 16421 16430 1 120.0200517 532.790560
16421 16422 16423 1 121.3800518 83.010560
16421 16422 16424 1 120.0200517 532.790560
16423 16422 16424 1 121.3800518 83.010560
5361 16423 6026 1 109.50000 418.400000
5361 16423 16422 1 103.70004 836.800000
5361 16423 16432 1 109.50000 418.400000
6026 16423 16422 1 103.70004 836.800000
6026 16423 16432 1 109.50000 418.400000
16422 16423 16432 1 103.70004 1034.033760
16422 16424 16425 1 119.8800511 375.723200
16422 16424 16426 1 120.0200517 532.790560
16425 16424 16426 1 119.8800511 375.723200
16424 16426 16427 1 119.8800511 375.723200
16424 16426 16428 1 120.0200517 532.790560
16427 16426 16428 1 119.8800511 375.723200
16426 16428 16429 1 119.8800511 375.723200
16426 16428 16430 1 120.0200517 532.790560
16429 16428 16430 1 119.8800511 375.723200
16421 16430 16428 1 120.0200517 532.790560
16421 16430 16431 1 119.8800511 375.723200
16428 16430 16431 1 119.8800511 375.723200
16423 16432 16433 1 115.00000 209.200000
16434 16435 16436 1 119.8800511 375.723200
16434 16435 16444 1 119.8800511 375.723200
16436 16435 16444 1 120.0200517 532.790560
16435 16436 16437 1 121.3800518 83.010560
16435 16436 16438 1 120.0200517 532.790560
16437 16436 16438 1 121.3800518 83.010560
10868 16437 10869 1 109.50000 418.400000
10868 16437 16436 1 103.70004 836.800000
10868 16437 16446 1 109.50000 418.400000
10869 16437 16436 1 103.70004 836.800000
10869 16437 16446 1 109.50000 418.400000
16436 16437 16446 1 103.70004 1034.033760
16436 16438 16439 1 119.8800511 375.723200
16436 16438 16440 1 120.0200517 532.790560
16439 16438 16440 1 119.8800511 375.723200
16438 16440 16441 1 119.8800511 375.723200
16438 16440 16442 1 120.0200517 532.790560
16441 16440 16442 1 119.8800511 375.723200
16440 16442 16443 1 119.8800511 375.723200
16440 16442 16444 1 120.0200517 532.790560
16443 16442 16444 1 119.8800511 375.723200
16435 16444 16442 1 120.0200517 532.790560
16435 16444 16445 1 119.8800511 375.723200
16442 16444 16445 1 119.8800511 375.723200
16437 16446 16447 1 115.00000 209.200000
16448 16449 16450 1 119.8800511 375.723200
16448 16449 16458 1 119.8800511 375.723200
16450 16449 16458 1 120.0200517 532.790560
16449 16450 16451 1 121.3800518 83.010560
16449 16450 16452 1 120.0200517 532.790560
16451 16450 16452 1 121.3800518 83.010560
10433 16451 10815 1 109.50000 418.400000
10433 16451 16450 1 103.70004 836.800000
10433 16451 16460 1 109.50000 418.400000
10815 16451 16450 1 103.70004 836.800000
10815 16451 16460 1 109.50000 418.400000
16450 16451 16460 1 103.70004 1034.033760
16450 16452 16453 1 119.8800511 375.723200
16450 16452 16454 1 120.0200517 532.790560
16453 16452 16454 1 119.8800511 375.723200
16452 16454 16455 1 119.8800511 375.723200
16452 16454 16456 1 120.0200517 532.790560
16455 16454 16456 1 119.8800511 375.723200
16454 16456 16457 1 119.8800511 375.723200
16454 16456 16458 1 120.0200517 532.790560
16457 16456 16458 1 119.8800511 375.723200
16449 16458 16456 1 120.0200517 532.790560
16449 16458 16459 1 119.8800511 375.723200
16456 16458 16459 1 119.8800511 375.723200
16451 16460 16461 1 115.00000 209.200000
16462 16463 16464 1 119.8800511 375.723200
16462 16463 16472 1 119.8800511 375.723200
16464 16463 16472 1 120.0200517 532.790560
16463 16464 16465 1 121.3800518 83.010560
16463 16464 16466 1 120.0200517 532.790560
16465 16464 16466 1 121.3800518 83.010560
986 16465 3936 1 109.50000 418.400000
986 16465 16464 1 103.70004 836.800000
986 16465 16474 1 109.50000 418.400000
3936 16465 16464 1 103.70004 836.800000
3936 16465 16474 1 109.50000 418.400000
16464 16465 16474 1 103.70004 1034.033760
16464 16466 16467 1 119.8800511 375.723200
16464 16466 16468 1 120.0200517 532.790560
16467 16466 16468 1 119.8800511 375.723200
16466 16468 16469 1 119.8800511 375.723200
16466 16468 16470 1 120.0200517 532.790560
16469 16468 16470 1 119.8800511 375.723200
16468 16470 16471 1 119.8800511 375.723200
16468 16470 16472 1 120.0200517 532.790560
16471 16470 16472 1 119.8800511 375.723200
16463 16472 16470 1 120.0200517 532.790560
16463 16472 16473 1 119.8800511 375.723200
16470 16472 16473 1 119.8800511 375.723200
16465 16474 16475 1 115.00000 209.200000
16476 16477 16478 1 119.8800511 375.723200
16476 16477 16486 1 119.8800511 375.723200
16478 16477 16486 1 120.0200517 532.790560
16477 16478 16479 1 121.3800518 83.010560
16477 16478 16480 1 120.0200517 532.790560
16479 16478 16480 1 121.3800518 83.010560
31 16479 10549 1 109.50000 418.400000
31 16479 16478 1 103.70004 836.800000
31 16479 16488 1 109.50000 418.400000
10549 16479 16478 1 103.70004 836.800000
10549 16479 16488 1 109.50000 418.400000
16478 16479 16488 1 103.70004 1034.033760
16478 16480 16481 1 119.8800511 375.723200
16478 16480 16482 1 120.0200517 532.790560
16481 16480 16482 1 119.8800511 375.723200
16480 16482 16483 1 119.8800511 375.723200
16480 16482 16484 1 120.0200517 532.790560
16483 16482 16484 1 119.8800511 375.723200
16482 16484 16485 1 119.8800511 375.723200
16482 16484 16486 1 120.0200517 532.790560
16485 16484 16486 1 119.8800511 375.723200
16477 16486 16484 1 120.0200517 532.790560
16477 16486 16487 1 119.8800511 375.723200
16484 16486 16487 1 119.8800511 375.723200
16479 16488 16489 1 115.00000 209.200000
16490 16491 16492 1 119.8800511 375.723200
16490 16491 16500 1 119.8800511 375.723200
16492 16491 16500 1 120.0200517 532.790560
16491 16492 16493 1 121.3800518 83.010560
16491 16492 16494 1 120.0200517 532.790560
16493 16492 16494 1 121.3800518 83.010560
7863 16493 10587 1 109.50000 418.400000
7863 16493 16492 1 103.70004 836.800000
7863 16493 16502 1 109.50000 418.400000
10587 16493 16492 1 103.70004 836.800000
10587 16493 16502 1 109.50000 418.400000
16492 16493 16502 1 103.70004 1034.033760
16492 16494 16495 1 119.8800511 375.723200
16492 16494 16496 1 120.0200517 532.790560
16495 16494 16496 1 119.8800511 375.723200
16494 16496 16497 1 119.8800511 375.723200
16494 16496 16498 1 120.0200517 532.790560
16497 16496 16498 1 119.8800511 375.723200
16496 16498 16499 1 119.8800511 375.723200
16496 16498 16500 1 120.0200517 532.790560
16499 16498 16500 1 119.8800511 375.723200
16491 16500 16498 1 120.0200517 532.790560
16491 16500 16501 1 119.8800511 375.723200
16498 16500 16501 1 119.8800511 375.723200
16493 16502 16503 1 115.00000 209.200000
16504 16505 16506 1 119.8800511 375.723200
16504 16505 16514 1 119.8800511 375.723200
16506 16505 16514 1 120.0200517 532.790560
16505 16506 16507 1 121.3800518 83.010560
16505 16506 16508 1 120.0200517 532.790560
16507 16506 16508 1 121.3800518 83.010560
2026 16507 5542 1 109.50000 418.400000
2026 16507 16506 1 103.70004 836.800000
2026 16507 16516 1 109.50000 418.400000
5542 16507 16506 1 103.70004 836.800000
5542 16507 16516 1 109.50000 418.400000
16506 16507 16516 1 103.70004 1034.033760
16506 16508 16509 1 119.8800511 375.723200
16506 16508 16510 1 120.0200517 532.790560
16509 16508 16510 1 119.8800511 375.723200
16508 16510 16511 1 119.8800511 375.723200
16508 16510 16512 1 120.0200517 532.790560
16511 16510 16512 1 119.8800511 375.723200
16510 16512 16513 1 119.8800511 375.723200
16510 16512 16514 1 120.0200517 532.790560
16513 16512 16514 1 119.8800511 375.723200
16505 16514 16512 1 120.0200517 532.790560
16505 16514 16515 1 119.8800511 375.723200
16512 16514 16515 1 119.8800511 375.723200
16507 16516 16517 1 115.00000 209.200000
16518 16519 16520 1 119.8800511 375.723200
16518 16519 16528 1 119.8800511 375.723200
16520 16519 16528 1 120.0200517 532.790560
16519 16520 16521 1 121.3800518 83.010560
16519 16520 16522 1 120.0200517 532.790560
16521 16520 16522 1 121.3800518 83.010560
9456 16521 10397 1 109.50000 418.400000
9456 16521 16520 1 103.70004 836.800000
9456 16521 16530 1 109.50000 418.400000
10397 16521 16520 1 103.70004 836.800000
10397 16521 16530 1 109.50000 418.400000
16520 16521 16530 1 103.70004 1034.033760
16520 16522 16523 1 119.8800511 375.723200
16520 16522 16524 1 120.0200517 532.790560
16523 16522 16524 1 119.8800511 375.723200
16522 16524 16525 1 119.8800511 375.723200
16522 16524 16526 1 120.0200517 532.790560
16525 16524 16526 1 119.8800511 375.723200
16524 16526 16527 1 119.8800511 375.723200
16524 16526 16528 1 120.0200517 532.790560
16527 16526 16528 1 119.8800511 375.723200
16519 16528 16526 1 120.0200517 532.790560
16519 16528 16529 1 119.8800511 375.723200
16526 16528 16529 1 119.8800511 375.723200
16521 16530 16531 1 115.00000 209.200000
16532 16533 16534 1 119.8800511 375.723200
16532 16533 16542 1 119.8800511 375.723200
16534 16533 16542 1 120.0200517 532.790560
16533 16534 16535 1 121.3800518 83.010560
16533 16534 16536 1 120.0200517 532.790560
16535 16534 16536 1 121.3800518 83.010560
6646 16535 8043 1 109.50000 418.400000
6646 16535 16534 1 103.70004 836.800000
6646 16535 16544 1 109.50000 418.400000
8043 16535 16534 1 103.70004 836.800000
8043 16535 16544 1 109.50000 418.400000
16534 16535 16544 1 103.70004 1034.033760
16534 16536 16537 1 119.8800511 375.723200
16534 16536 16538 1 120.0200517 532.790560
16537 16536 16538 1 119.8800511 375.723200
16536 16538 16539 1 119.8800511 375.723200
16536 16538 16540 1 120.0200517 532.790560
16539 16538 16540 1 119.8800511 375.723200
16538 16540 16541 1 119.8800511 375.723200
16538 16540 16542 1 120.0200517 532.790560
16541 16540 16542 1 119.8800511 375.723200
16533 16542 16540 1 120.0200517 532.790560
16533 16542 16543 1 119.8800511 375.723200
16540 16542 16543 1 119.8800511 375.723200
16535 16544 16545 1 115.00000 209.200000
16546 16547 16548 1 119.8800511 375.723200
16546 16547 16556 1 119.8800511 375.723200
16548 16547 16556 1 120.0200517 532.790560
16547 16548 16549 1 121.3800518 83.010560
16547 16548 16550 1 120.0200517 532.790560
16549 16548 16550 1 121.3800518 83.010560
4811 16549 9464 1 109.50000 418.400000
4811 16549 16548 1 103.70004 836.800000
4811 16549 16558 1 109.50000 418.400000
9464 16549 16548 1 103.70004 836.800000
9464 16549 16558 1 109.50000 418.400000
16548 16549 16558 1 103.70004 1034.033760
16548 16550 16551 1 119.8800511 375.723200
16548 16550 16552 1 120.0200517 532.790560
16551 16550 16552 1 119.8800511 375.723200
16550 16552 16553 1 119.8800511 375.723200
16550 16552 16554 1 120.0200517 532.790560
16553 16552 16554 1 119.8800511 375.723200
16552 16554 16555 1 119.8800511 375.723200
16552 16554 16556 1 120.0200517 532.790560
16555 16554 16556 1 119.8800511 375.723200
16547 16556 16554 1 120.0200517 532.790560
16547 16556 16557 1 119.8800511 375.723200
16554 16556 16557 1 119.8800511 375.723200
16549 16558 16559 1 115.00000 209.200000
16560 16561 16562 1 119.8800511 375.723200
16560 16561 16570 1 119.8800511 375.723200
16562 16561 16570 1 120.0200517 532.790560
16561 16562 16563 1 121.3800518 83.010560
16561 16562 16564 1 120.0200517 532.790560
16563 16562 16564 1 121.3800518 83.010560
7311 16563 8290 1 109.50000 418.400000
7311 16563 16562 1 103.70004 836.800000
7311 16563 16572 1 109.50000 418.400000
8290 16563 16562 1 103.70004 836.800000
8290 16563 16572 1 109.50000 418.400000
16562 16563 16572 1 103.70004 1034.033760
16562 16564 16565 1 119.8800511 375.723200
16562 16564 16566 1 120.0200517 532.790560
16565 16564 16566 1 119.8800511 375.723200
16564 16566 16567 1 119.8800511 375.723200
16564 16566 16568 1 120.0200517 532.790560
16567 16566 16568 1 119.8800511 375.723200
16566 16568 16569 1 119.8800511 375.723200
16566 16568 16570 1 120.0200517 532.790560
16569 16568 16570 1 119.8800511 375.723200
16561 16570 16568 1 120.0200517 532.790560
16561 16570 16571 1 119.8800511 375.723200
16568 16570 16571 1 119.8800511 375.723200
16563 16572 16573 1 115.00000 209.200000
16574 16575 16576 1 119.8800511 375.723200
16574 16575 16584 1 119.8800511 375.723200
16576 16575 16584 1 120.0200517 532.790560
16575 16576 16577 1 121.3800518 83.010560
16575 16576 16578 1 120.0200517 532.790560
16577 16576 16578 1 121.3800518 83.010560
4207 16577 7945 1 109.50000 418.400000
4207 16577 16576 1 103.70004 836.800000
4207 16577 16586 1 109.50000 418.400000
7945 16577 16576 1 103.70004 836.800000
7945 16577 16586 1 109.50000 418.400000
16576 16577 16586 1 103.70004 1034.033760
16576 16578 16579 1 119.8800511 375.723200
16576 16578 16580 1 120.0200517 532.790560
16579 16578 16580 1 119.8800511 375.723200
16578 16580 16581 1 119.8800511 375.723200
16578 16580 16582 1 120.0200517 532.790560
16581 16580 16582 1 119.8800511 375.723200
16580 16582 16583 1 119.8800511 375.723200
16580 16582 16584 1 120.0200517 532.790560
16583 16582 16584 1 119.8800511 375.723200
16575 16584 16582 1 120.0200517 532.790560
16575 16584 16585 1 119.8800511 375.723200
16582 16584 16585 1 119.8800511 375.723200
16577 16586 16587 1 115.00000 209.200000
16588 16589 16590 1 119.8800511 375.723200
16588 16589 16598 1 119.8800511 375.723200
16590 16589 16598 1 120.0200517 532.790560
16589 16590 16591 1 121.3800518 83.010560
16589 16590 16592 1 120.0200517 532.790560
16591 16590 16592 1 121.3800518 83.010560
3147 16591 6233 1 109.50000 418.400000
3147 16591 16590 1 103.70004 836.800000
3147 16591 16600 1 109.50000 418.400000
6233 16591 16590 1 103.70004 836.800000
6233 16591 16600 1 109.50000 418.400000
16590 16591 16600 1 103.70004 1034.033760
16590 16592 16593 1 119.8800511 375.723200
16590 16592 16594 1 120.0200517 532.790560
16593 16592 16594 1 119.8800511 375.723200
16592 16594 16595 1 119.8800511 375.723200
16592 16594 16596 1 120.0200517 532.790560
16595 16594 16596 1 119.8800511 375.723200
16594 16596 16597 1 119.8800511 375.723200
16594 16596 16598 1 120.0200517 532.790560
16597 16596 16598 1 119.8800511 375.723200
16589 16598 16596 1 120.0200517 532.790560
16589 16598 16599 1 119.8800511 375.723200
16596 16598 16599 1 119.8800511 375.723200
16591 16600 16601 1 115.00000 209.200000
16602 16603 16604 1 119.8800511 375.723200
16602 16603 16612 1 119.8800511 375.723200
16604 16603 16612 1 120.0200517 532.790560
16603 16604 16605 1 121.3800518 83.010560
16603 16604 16606 1 120.0200517 532.790560
16605 16604 16606 1 121.3800518 83.010560
2018 16605 2019 1 109.50000 418.400000
2018 16605 16604 1 103.70004 836.800000
2018 16605 16614 1 109.50000 418.400000
2019 16605 16604 1 103.70004 836.800000
2019 16605 16614 1 109.50000 418.400000
16604 16605 16614 1 103.70004 1034.033760
16604 16606 16607 1 119.8800511 375.723200
16604 16606 16608 1 120.0200517 532.790560
16607 16606 16608 1 119.8800511 375.723200
16606 16608 16609 1 119.8800511 375.723200
16606 16608 16610 1 120.0200517 532.790560
16609 16608 16610 1 119.8800511 375.723200
16608 16610 16611 1 119.8800511 375.723200
16608 16610 16612 1 120.0200517 532.790560
16611 16610 16612 1 119.8800511 375.723200
16603 16612 16610 1 120.0200517 532.790560
16603 16612 16613 1 119.8800511 375.723200
16610 16612 16613 1 119.8800511 375.723200
16605 16614 16615 1 115.00000 209.200000
16616 16617 16618 1 119.8800511 375.723200
16616 16617 16626 1 119.8800511 375.723200
16618 16617 16626 1 120.0200517 532.790560
16617 16618 16619 1 121.3800518 83.010560
16617 16618 16620 1 120.0200517 532.790560
16619 16618 16620 1 121.3800518 83.010560
1939 16619 3627 1 109.50000 418.400000
1939 16619 16618 1 103.70004 836.800000
1939 16619 16628 1 109.50000 418.400000
3627 16619 16618 1 103.70004 836.800000
3627 16619 16628 1 109.50000 418.400000
16618 16619 16628 1 103.70004 1034.033760
16618 16620 16621 1 119.8800511 375.723200
16618 16620 16622 1 120.0200517 532.790560
16621 16620 16622 1 119.8800511 375.723200
16620 16622 16623 1 119.8800511 375.723200
16620 16622 16624 1 120.0200517 532.790560
16623 16622 16624 1 119.8800511 375.723200
16622 16624 16625 1 119.8800511 375.723200
16622 16624 16626 1 120.0200517 532.790560
16625 16624 16626 1 119.8800511 375.723200
16617 16626 16624 1 120.0200517 532.790560
16617 16626 16627 1 119.8800511 375.723200
16624 16626 16627 1 119.8800511 375.723200
16619 16628 16629 1 115.00000 209.200000
16630 16631 16632 1 119.8800511 375.723200
16630 16631 16640 1 119.8800511 375.723200
16632 16631 16640 1 120.0200517 532.790560
16631 16632 16633 1 121.3800518 83.010560
16631 16632 16634 1 120.0200517 532.790560
16633 16632 16634 1 121.3800518 83.010560
2014 16633 5038 1 109.50000 418.400000
2014 16633 16632 1 103.70004 836.800000
2014 16633 16642 1 109.50000 418.400000
5038 16633 16632 1 103.70004 836.800000
5038 16633 16642 1 109.50000 418.400000
16632 16633 16642 1 103.70004 1034.033760
16632 16634 16635 1 119.8800511 375.723200
16632 16634 16636 1 120.0200517 532.790560
16635 16634 16636 1 119.8800511 375.723200
16634 16636 16637 1 119.8800511 375.723200
16634 16636 16638 1 120.0200517 532.790560
16637 16636 16638 1 119.8800511 375.723200
16636 16638 16639 1 119.8800511 375.723200
16636 16638 16640 1 120.0200517 532.790560
16639 16638 16640 1 119.8800511 375.723200
16631 16640 16638 1 120.0200517 532.790560
16631 16640 16641 1 119.8800511 375.723200
16638 16640 16641 1 119.8800511 375.723200
16633 16642 16643 1 115.00000 209.200000
16644 16645 16646 1 119.8800511 375.723200
16644 16645 16654 1 119.8800511 375.723200
16646 16645 16654 1 120.0200517 532.790560
16645 16646 16647 1 121.3800518 83.010560
16645 16646 16648 1 120.0200517 532.790560
16647 16646 16648 1 121.3800518 83.010560
1699 16647 4236 1 109.50000 418.400000
1699 16647 16646 1 103.70004 836.800000
1699 16647 16656 1 109.50000 418.400000
4236 16647 16646 1 103.70004 836.800000
4236 16647 16656 1 109.50000 418.400000
16646 16647 16656 1 103.70004 1034.033760
16646 16648 16649 1 119.8800511 375.723200
16646 16648 16650 1 120.0200517 532.790560
16649 16648 16650 1 119.8800511 375.723200
16648 16650 16651 1 119.8800511 375.723200
16648 16650 16652 1 120.0200517 532.790560
16651 16650 16652 1 119.8800511 375.723200
16650 16652 16653 1 119.8800511 375.723200
16650 16652 16654 1 120.0200517 532.790560
16653 16652 16654 1 119.8800511 375.723200
16645 16654 16652 1 120.0200517 532.790560
16645 16654 16655 1 119.8800511 375.723200
16652 16654 16655 1 119.8800511 375.723200
16647 16656 16657 1 115.00000 209.200000
16658 16659 16660 1 119.8800511 375.723200
16658 16659 16668 1 119.8800511 375.723200
16660 16659 16668 1 120.0200517 532.790560
16659 16660 16661 1 121.3800518 83.010560
16659 16660 16662 1 120.0200517 532.790560
16661 16660 16662 1 121.3800518 83.010560
4168 16661 9877 1 109.50000 418.400000
4168 16661 16660 1 103.70004 836.800000
4168 16661 16670 1 109.50000 418.400000
9877 16661 16660 1 103.70004 836.800000
9877 16661 16670 1 109.50000 418.400000
16660 16661 16670 1 103.70004 1034.033760
16660 16662 16663 1 119.8800511 375.723200
16660 16662 16664 1 120.0200517 532.790560
16663 16662 16664 1 119.8800511 375.723200
16662 16664 16665 1 119.8800511 375.723200
16662 16664 16666 1 120.0200517 532.790560
16665 16664 16666 1 119.8800511 375.723200
16664 16666 16667 1 119.8800511 375.723200
16664 16666 16668 1 120.0200517 532.790560
16667 16666 16668 1 119.8800511 375.723200
16659 16668 16666 1 120.0200517 532.790560
16659 16668 16669 1 119.8800511 375.723200
16666 16668 16669 1 119.8800511 375.723200
16661 16670 16671 1 115.00000 209.200000
16672 16673 16674 1 119.8800511 375.723200
16672 16673 16682 1 119.8800511 375.723200
16674 16673 16682 1 120.0200517 532.790560
16673 16674 16675 1 121.3800518 83.010560
16673 16674 16676 1 120.0200517 532.790560
16675 16674 16676 1 121.3800518 83.010560
845 16675 2299 1 109.50000 418.400000
845 16675 16674 1 103.70004 836.800000
845 16675 16684 1 109.50000 418.400000
2299 16675 16674 1 103.70004 836.800000
2299 16675 16684 1 109.50000 418.400000
16674 16675 16684 1 103.70004 1034.033760
16674 16676 16677 1 119.8800511 375.723200
16674 16676 16678 1 120.0200517 532.790560
16677 16676 16678 1 119.8800511 375.723200
16676 16678 16679 1 119.8800511 375.723200
16676 16678 16680 1 120.0200517 532.790560
16679 16678 16680 1 119.8800511 375.723200
16678 16680 16681 1 119.8800511 375.723200
16678 16680 16682 1 120.0200517 532.790560
16681 16680 16682 1 119.8800511 375.723200
16673 16682 16680 1 120.0200517 532.790560
16673 16682 16683 1 119.8800511 375.723200
16680 16682 16683 1 119.8800511 375.723200
16675 16684 16685 1 115.00000 209.200000
16686 16687 16688 1 119.8800511 375.723200
16686 16687 16696 1 119.8800511 375.723200
16688 16687 16696 1 120.0200517 532.790560
16687 16688 16689 1 121.3800518 83.010560
16687 16688 16690 1 120.0200517 532.790560
16689 16688 16690 1 121.3800518 83.010560
1327 16689 10140 1 109.50000 418.400000
1327 16689 16688 1 103.70004 836.800000
1327 16689 16698 1 109.50000 418.400000
10140 16689 16688 1 103.70004 836.800000
10140 16689 16698 1 109.50000 418.400000
16688 16689 16698 1 103.70004 1034.033760
16688 16690 16691 1 119.8800511 375.723200
16688 16690 16692 1 120.0200517 532.790560
16691 16690 16692 1 119.8800511 375.723200
16690 16692 16693 1 119.8800511 375.723200
16690 16692 16694 1 120.0200517 532.790560
16693 16692 16694 1 119.8800511 375.723200
16692 16694 16695 1 119.8800511 375.723200
16692 16694 16696 1 120.0200517 532.790560
16695 16694 16696 1 119.8800511 375.723200
16687 16696 16694 1 120.0200517 532.790560
16687 16696 16697 1 119.8800511 375.723200
16694 16696 16697 1 119.8800511 375.723200
16689 16698 16699 1 115.00000 209.200000
16700 16701 16702 1 119.8800511 375.723200
16700 16701 16710 1 119.8800511 375.723200
16702 16701 16710 1 120.0200517 532.790560
16701 16702 16703 1 121.3800518 83.010560
16701 16702 16704 1 120.0200517 532.790560
16703 16702 16704 1 121.3800518 83.010560
3284 16703 3285 1 109.50000 418.400000
3284 16703 16702 1 103.70004 836.800000
3284 16703 16712 1 109.50000 418.400000
3285 16703 16702 1 103.70004 836.800000
3285 16703 16712 1 109.50000 418.400000
16702 16703 16712 1 103.70004 1034.033760
16702 16704 16705 1 119.8800511 375.723200
16702 16704 16706 1 120.0200517 532.790560
16705 16704 16706 1 119.8800511 375.723200
16704 16706 16707 1 119.8800511 375.723200
16704 16706 16708 1 120.0200517 532.790560
16707 16706 16708 1 119.8800511 375.723200
16706 16708 16709 1 119.8800511 375.723200
16706 16708 16710 1 120.0200517 532.790560
16709 16708 16710 1 119.8800511 375.723200
16701 16710 16708 1 120.0200517 532.790560
16701 16710 16711 1 119.8800511 375.723200
16708 16710 16711 1 119.8800511 375.723200
16703 16712 16713 1 115.00000 209.200000
16714 16715 16716 1 119.8800511 375.723200
16714 16715 16724 1 119.8800511 375.723200
16716 16715 16724 1 120.0200517 532.790560
16715 16716 16717 1 121.3800518 83.010560
16715 16716 16718 1 120.0200517 532.790560
16717 16716 16718 1 121.3800518 83.010560
442 16717 5141 1 109.50000 418.400000
442 16717 16716 1 103.70004 836.800000
442 16717 16726 1 109.50000 418.400000
5141 16717 16716 1 103.70004 836.800000
5141 16717 16726 1 109.50000 418.400000
16716 16717 16726 1 103.70004 1034.033760
16716 16718 16719 1 119.8800511 375.723200
16716 16718 16720 1 120.0200517 532.790560
16719 16718 16720 1 119.8800511 375.723200
16718 16720 16721 1 119.8800511 375.723200
16718 16720 16722 1 120.0200517 532.790560
16721 16720 16722 1 119.8800511 375.723200
16720 16722 16723 1 119.8800511 375.723200
16720 16722 16724 1 120.0200517 532.790560
16723 16722 16724 1 119.8800511 375.723200
16715 16724 16722 1 120.0200517 532.790560
16715 16724 16725 1 119.8800511 375.723200
16722 16724 16725 1 119.8800511 375.723200
16717 16726 16727 1 115.00000 209.200000
16728 16729 16730 1 119.8800511 375.723200
16728 16729 16738 1 119.8800511 375.723200
16730 16729 16738 1 120.0200517 532.790560
16729 16730 16731 1 121.3800518 83.010560
16729 16730 16732 1 120.0200517 532.790560
16731 16730 16732 1 121.3800518 83.010560
7981 16731 9990 1 109.50000 418.400000
7981 16731 16730 1 103.70004 836.800000
7981 16731 16740 1 109.50000 418.400000
9990 16731 16730 1 103.70004 836.800000
9990 16731 16740 1 109.50000 418.400000
16730 16731 16740 1 103.70004 1034.033760
16730 16732 16733 1 119.8800511 375.723200
16730 16732 16734 1 120.0200517 532.790560
16733 16732 16734 1 119.8800511 375.723200
16732 16734 16735 1 119.8800511 375.723200
16732 16734 16736 1 120.0200517 532.790560
16735 16734 16736 1 119.8800511 375.723200
16734 16736 16737 1 119.8800511 375.723200
16734 16736 16738 1 120.0200517 532.790560
16737 16736 16738 1 119.8800511 375.723200
16729 16738 16736 1 120.0200517 532.790560
16729 16738 16739 1 119.8800511 375.723200
16736 16738 16739 1 119.8800511 375.723200
16731 16740 16741 1 115.00000 209.200000
16742 16743 16744 1 119.8800511 375.723200
16742 16743 16752 1 119.8800511 375.723200
16744 16743 16752 1 120.0200517 532.790560
16743 16744 16745 1 121.3800518 83.010560
16743 16744 16746 1 120.0200517 532.790560
16745 16744 16746 1 121.3800518 83.010560
3490 16745 10069 1 109.50000 418.400000
3490 16745 16744 1 103.70004 836.800000
3490 16745 16754 1 109.50000 418.400000
10069 16745 16744 1 103.70004 836.800000
10069 16745 16754 1 109.50000 418.400000
16744 16745 16754 1 103.70004 1034.033760
16744 16746 16747 1 119.8800511 375.723200
16744 16746 16748 1 120.0200517 532.790560
16747 16746 16748 1 119.8800511 375.723200
16746 16748 16749 1 119.8800511 375.723200
16746 16748 16750 1 120.0200517 532.790560
16749 16748 16750 1 119.8800511 375.723200
16748 16750 16751 1 119.8800511 375.723200
16748 16750 16752 1 120.0200517 532.790560
16751 16750 16752 1 119.8800511 375.723200
16743 16752 16750 1 120.0200517 532.790560
16743 16752 16753 1 119.8800511 375.723200
16750 16752 16753 1 119.8800511 375.723200
16745 16754 16755 1 115.00000 209.200000
16756 16757 16758 1 119.8800511 375.723200
16756 16757 16766 1 119.8800511 375.723200
16758 16757 16766 1 120.0200517 532.790560
16757 16758 16759 1 121.3800518 83.010560
16757 16758 16760 1 120.0200517 532.790560
16759 16758 16760 1 121.3800518 83.010560
441 16759 7427 1 109.50000 418.400000
441 16759 16758 1 103.70004 836.800000
441 16759 16768 1 109.50000 418.400000
7427 16759 16758 1 103.70004 836.800000
7427 16759 16768 1 109.50000 418.400000
16758 16759 16768 1 103.70004 1034.033760
16758 16760 16761 1 119.8800511 375.723200
16758 16760 16762 1 120.0200517 532.790560
16761 16760 16762 1 119.8800511 375.723200
16760 16762 16763 1 119.8800511 375.723200
16760 16762 16764 1 120.0200517 532.790560
16763 16762 16764 1 119.8800511 375.723200
16762 16764 16765 1 119.8800511 375.723200
16762 16764 16766 1 120.0200517 532.790560
16765 16764 16766 1 119.8800511 375.723200
16757 16766 16764 1 120.0200517 532.790560
16757 16766 16767 1 119.8800511 375.723200
16764 16766 16767 1 119.8800511 375.723200
16759 16768 16769 1 115.00000 209.200000
16770 16771 16772 1 119.8800511 375.723200
16770 16771 16780 1 119.8800511 375.723200
16772 16771 16780 1 120.0200517 532.790560
16771 16772 16773 1 121.3800518 83.010560
16771 16772 16774 1 120.0200517 532.790560
16773 16772 16774 1 121.3800518 83.010560
3184 16773 6126 1 109.50000 418.400000
3184 16773 16772 1 103.70004 836.800000
3184 16773 16782 1 109.50000 418.400000
6126 16773 16772 1 103.70004 836.800000
6126 16773 16782 1 109.50000 418.400000
16772 16773 16782 1 103.70004 1034.033760
16772 16774 16775 1 119.8800511 375.723200
16772 16774 16776 1 120.0200517 532.790560
16775 16774 16776 1 119.8800511 375.723200
16774 16776 16777 1 119.8800511 375.723200
16774 16776 16778 1 120.0200517 532.790560
16777 16776 16778 1 119.8800511 375.723200
16776 16778 16779 1 119.8800511 375.723200
16776 16778 16780 1 120.0200517 532.790560
16779 16778 16780 1 119.8800511 375.723200
16771 16780 16778 1 120.0200517 532.790560
16771 16780 16781 1 119.8800511 375.723200
16778 16780 16781 1 119.8800511 375.723200
16773 16782 16783 1 115.00000 209.200000
16784 16785 16786 1 119.8800511 375.723200
16784 16785 16794 1 119.8800511 375.723200
16786 16785 16794 1 120.0200517 532.790560
16785 16786 16787 1 121.3800518 83.010560
16785 16786 16788 1 120.0200517 532.790560
16787 16786 16788 1 121.3800518 83.010560
1960 16787 9622 1 109.50000 418.400000
1960 16787 16786 1 103.70004 836.800000
1960 16787 16796 1 109.50000 418.400000
9622 16787 16786 1 103.70004 836.800000
9622 16787 16796 1 109.50000 418.400000
16786 16787 16796 1 103.70004 1034.033760
16786 16788 16789 1 119.8800511 375.723200
16786 16788 16790 1 120.0200517 532.790560
16789 16788 16790 1 119.8800511 375.723200
16788 16790 16791 1 119.8800511 375.723200
16788 16790 16792 1 120.0200517 532.790560
16791 16790 16792 1 119.8800511 375.723200
16790 16792 16793 1 119.8800511 375.723200
16790 16792 16794 1 120.0200517 532.790560
16793 16792 16794 1 119.8800511 375.723200
16785 16794 16792 1 120.0200517 532.790560
16785 16794 16795 1 119.8800511 375.723200
16792 16794 16795 1 119.8800511 375.723200
16787 16796 16797 1 115.00000 209.200000
16798 16799 16800 1 119.8800511 375.723200
16798 16799 16808 1 119.8800511 375.723200
16800 16799 16808 1 120.0200517 532.790560
16799 16800 16801 1 121.3800518 83.010560
16799 16800 16802 1 120.0200517 532.790560
16801 16800 16802 1 121.3800518 83.010560
1750 16801 4922 1 109.50000 418.400000
1750 16801 16800 1 103.70004 836.800000
1750 16801 16810 1 109.50000 418.400000
4922 16801 16800 1 103.70004 836.800000
4922 16801 16810 1 109.50000 418.400000
16800 16801 16810 1 103.70004 1034.033760
16800 16802 16803 1 119.8800511 375.723200
16800 16802 16804 1 120.0200517 532.790560
16803 16802 16804 1 119.8800511 375.723200
16802 16804 16805 1 119.8800511 375.723200
16802 16804 16806 1 120.0200517 532.790560
16805 16804 16806 1 119.8800511 375.723200
16804 16806 16807 1 119.8800511 375.723200
16804 16806 16808 1 120.0200517 532.790560
16807 16806 16808 1 119.8800511 375.723200
16799 16808 16806 1 120.0200517 532.790560
16799 16808 16809 1 119.8800511 375.723200
16806 16808 16809 1 119.8800511 375.723200
16801 16810 16811 1 115.00000 209.200000
16812 16813 16814 1 119.8800511 375.723200
16812 16813 16822 1 119.8800511 375.723200
16814 16813 16822 1 120.0200517 532.790560
16813 16814 16815 1 121.3800518 83.010560
16813 16814 16816 1 120.0200517 532.790560
16815 16814 16816 1 121.3800518 83.010560
8511 16815 10784 1 109.50000 418.400000
8511 16815 16814 1 103.70004 836.800000
8511 16815 16824 1 109.50000 418.400000
10784 16815 16814 1 103.70004 836.800000
10784 16815 16824 1 109.50000 418.400000
16814 16815 16824 1 103.70004 1034.033760
16814 16816 16817 1 119.8800511 375.723200
16814 16816 16818 1 120.0200517 532.790560
16817 16816 16818 1 119.8800511 375.723200
16816 16818 16819 1 119.8800511 375.723200
16816 16818 16820 1 120.0200517 532.790560
16819 16818 16820 1 119.8800511 375.723200
16818 16820 16821 1 119.8800511 375.723200
16818 16820 16822 1 120.0200517 532.790560
16821 16820 16822 1 119.8800511 375.723200
16813 16822 16820 1 120.0200517 532.790560
16813 16822 16823 1 119.8800511 375.723200
16820 16822 16823 1 119.8800511 375.723200
16815 16824 16825 1 115.00000 209.200000
16826 16827 16828 1 119.8800511 375.723200
16826 16827 16836 1 119.8800511 375.723200
16828 16827 16836 1 120.0200517 532.790560
16827 16828 16829 1 121.3800518 83.010560
16827 16828 16830 1 120.0200517 532.790560
16829 16828 16830 1 121.3800518 83.010560
6835 16829 8634 1 109.50000 418.400000
6835 16829 16828 1 103.70004 836.800000
6835 16829 16838 1 109.50000 418.400000
8634 16829 16828 1 103.70004 836.800000
8634 16829 16838 1 109.50000 418.400000
16828 16829 16838 1 103.70004 1034.033760
16828 16830 16831 1 119.8800511 375.723200
16828 16830 16832 1 120.0200517 532.790560
16831 16830 16832 1 119.8800511 375.723200
16830 16832 16833 1 119.8800511 375.723200
16830 16832 16834 1 120.0200517 532.790560
16833 16832 16834 1 119.8800511 375.723200
16832 16834 16835 1 119.8800511 375.723200
16832 16834 16836 1 120.0200517 532.790560
16835 16834 16836 1 119.8800511 375.723200
16827 16836 16834 1 120.0200517 532.790560
16827 16836 16837 1 119.8800511 375.723200
16834 16836 16837 1 119.8800511 375.723200
16829 16838 16839 1 115.00000 209.200000
16840 16841 16842 1 119.8800511 375.723200
16840 16841 16850 1 119.8800511 375.723200
16842 16841 16850 1 120.0200517 532.790560
16841 16842 16843 1 121.3800518 83.010560
16841 16842 16844 1 120.0200517 532.790560
16843 16842 16844 1 121.3800518 83.010560
2893 16843 11044 1 109.50000 418.400000
2893 16843 16842 1 103.70004 836.800000
2893 16843 16852 1 109.50000 418.400000
11044 16843 16842 1 103.70004 836.800000
11044 16843 16852 1 109.50000 418.400000
16842 16843 16852 1 103.70004 1034.033760
16842 16844 16845 1 119.8800511 375.723200
16842 16844 16846 1 120.0200517 532.790560
16845 16844 16846 1 119.8800511 375.723200
16844 16846 16847 1 119.8800511 375.723200
16844 16846 16848 1 120.0200517 532.790560
16847 16846 16848 1 119.8800511 375.723200
16846 16848 16849 1 119.8800511 375.723200
16846 16848 16850 1 120.0200517 532.790560
16849 16848 16850 1 119.8800511 375.723200
16841 16850 16848 1 120.0200517 532.790560
16841 16850 16851 1 119.8800511 375.723200
16848 16850 16851 1 119.8800511 375.723200
16843 16852 16853 1 115.00000 209.200000
16854 16855 16856 1 119.8800511 375.723200
16854 16855 16864 1 119.8800511 375.723200
16856 16855 16864 1 120.0200517 532.790560
16855 16856 16857 1 121.3800518 83.010560
16855 16856 16858 1 120.0200517 532.790560
16857 16856 16858 1 121.3800518 83.010560
7661 16857 7662 1 109.50000 418.400000
7661 16857 16856 1 103.70004 836.800000
7661 16857 16866 1 109.50000 418.400000
7662 16857 16856 1 103.70004 836.800000
7662 16857 16866 1 109.50000 418.400000
16856 16857 16866 1 103.70004 1034.033760
16856 16858 16859 1 119.8800511 375.723200
16856 16858 16860 1 120.0200517 532.790560
16859 16858 16860 1 119.8800511 375.723200
16858 16860 16861 1 119.8800511 375.723200
16858 16860 16862 1 120.0200517 532.790560
16861 16860 16862 1 119.8800511 375.723200
16860 16862 16863 1 119.8800511 375.723200
16860 16862 16864 1 120.0200517 532.790560
16863 16862 16864 1 119.8800511 375.723200
16855 16864 16862 1 120.0200517 532.790560
16855 16864 16865 1 119.8800511 375.723200
16862 16864 16865 1 119.8800511 375.723200
16857 16866 16867 1 115.00000 209.200000
16868 16869 16870 1 119.8800511 375.723200
16868 16869 16878 1 119.8800511 375.723200
16870 16869 16878 1 120.0200517 532.790560
16869 16870 16871 1 121.3800518 83.010560
16869 16870 16872 1 120.0200517 532.790560
16871 16870 16872 1 121.3800518 83.010560
2046 16871 6921 1 109.50000 418.400000
2046 16871 16870 1 103.70004 836.800000
2046 16871 16880 1 109.50000 418.400000
6921 16871 16870 1 103.70004 836.800000
6921 16871 16880 1 109.50000 418.400000
16870 16871 16880 1 103.70004 1034.033760
16870 16872 16873 1 119.8800511 375.723200
16870 16872 16874 1 120.0200517 532.790560
16873 16872 16874 1 119.8800511 375.723200
16872 16874 16875 1 119.8800511 375.723200
16872 16874 16876 1 120.0200517 532.790560
16875 16874 16876 1 119.8800511 375.723200
16874 16876 16877 1 119.8800511 375.723200
16874 16876 16878 1 120.0200517 532.790560
16877 16876 16878 1 119.8800511 375.723200
16869 16878 16876 1 120.0200517 532.790560
16869 16878 16879 1 119.8800511 375.723200
16876 16878 16879 1 119.8800511 375.723200
16871 16880 16881 1 115.00000 209.200000
16882 16883 16884 1 119.8800511 375.723200
16882 16883 16892 1 119.8800511 375.723200
16884 16883 16892 1 120.0200517 532.790560
16883 16884 16885 1 121.3800518 83.010560
16883 16884 16886 1 120.0200517 532.790560
16885 16884 16886 1 121.3800518 83.010560
3189 16885 6057 1 109.50000 418.400000
3189 16885 16884 1 103.70004 836.800000
3189 16885 16894 1 109.50000 418.400000
6057 16885 16884 1 103.70004 836.800000
6057 16885 16894 1 109.50000 418.400000
16884 16885 16894 1 103.70004 1034.033760
16884 16886 16887 1 119.8800511 375.723200
16884 16886 16888 1 120.0200517 532.790560
16887 16886 16888 1 119.8800511 375.723200
16886 16888 16889 1 119.8800511 375.723200
16886 16888 16890 1 120.0200517 532.790560
16889 16888 16890 1 119.8800511 375.723200
16888 16890 16891 1 119.8800511 375.723200
16888 16890 16892 1 120.0200517 532.790560
16891 16890 16892 1 119.8800511 375.723200
16883 16892 16890 1 120.0200517 532.790560
16883 16892 16893 1 119.8800511 375.723200
16890 16892 16893 1 119.8800511 375.723200
16885 16894 16895 1 115.00000 209.200000
16896 16897 16898 1 119.8800511 375.723200
16896 16897 16906 1 119.8800511 375.723200
16898 16897 16906 1 120.0200517 532.790560
16897 16898 16899 1 121.3800518 83.010560
16897 16898 16900 1 120.0200517 532.790560
16899 16898 16900 1 121.3800518 83.010560
3537 16899 9859 1 109.50000 418.400000
3537 16899 16898 1 103.70004 836.800000
3537 16899 16908 1 109.50000 418.400000
9859 16899 16898 1 103.70004 836.800000
9859 16899 16908 1 109.50000 418.400000
16898 16899 16908 1 103.70004 1034.033760
16898 16900 16901 1 119.8800511 375.723200
16898 16900 16902 1 120.0200517 532.790560
16901 16900 16902 1 119.8800511 375.723200
16900 16902 16903 1 119.8800511 375.723200
16900 16902 16904 1 120.0200517 532.790560
16903 16902 16904 1 119.8800511 375.723200
16902 16904 16905 1 119.8800511 375.723200
16902 16904 16906 1 120.0200517 532.790560
16905 16904 16906 1 119.8800511 375.723200
16897 16906 16904 1 120.0200517 532.790560
16897 16906 16907 1 119.8800511 375.723200
16904 16906 16907 1 119.8800511 375.723200
16899 16908 16909 1 115.00000 209.200000
16910 16911 16912 1 119.8800511 375.723200
16910 16911 16920 1 119.8800511 375.723200
16912 16911 16920 1 120.0200517 532.790560
16911 16912 16913 1 121.3800518 83.010560
16911 16912 16914 1 120.0200517 532.790560
16913 16912 16914 1 121.3800518 83.010560
5133 16913 9067 1 109.50000 418.400000
5133 16913 16912 1 103.70004 836.800000
5133 16913 16922 1 109.50000 418.400000
9067 16913 16912 1 103.70004 836.800000
9067 16913 16922 1 109.50000 418.400000
16912 16913 16922 1 103.70004 1034.033760
16912 16914 16915 1 119.8800511 375.723200
16912 16914 16916 1 120.0200517 532.790560
16915 16914 16916 1 119.8800511 375.723200
16914 16916 16917 1 119.8800511 375.723200
16914 16916 16918 1 120.0200517 532.790560
16917 16916 16918 1 119.8800511 375.723200
16916 16918 16919 1 119.8800511 375.723200
16916 16918 16920 1 120.0200517 532.790560
16919 16918 16920 1 119.8800511 375.723200
16911 16920 16918 1 120.0200517 532.790560
16911 16920 16921 1 119.8800511 375.723200
16918 16920 16921 1 119.8800511 375.723200
16913 16922 16923 1 115.00000 209.200000
16924 16925 16926 1 119.8800511 375.723200
16924 16925 16934 1 119.8800511 375.723200
16926 16925 16934 1 120.0200517 532.790560
16925 16926 16927 1 121.3800518 83.010560
16925 16926 16928 1 120.0200517 532.790560
16927 16926 16928 1 121.3800518 83.010560
4701 16927 7064 1 109.50000 418.400000
4701 16927 16926 1 103.70004 836.800000
4701 16927 16936 1 109.50000 418.400000
7064 16927 16926 1 103.70004 836.800000
7064 16927 16936 1 109.50000 418.400000
16926 16927 16936 1 103.70004 1034.033760
16926 16928 16929 1 119.8800511 375.723200
16926 16928 16930 1 120.0200517 532.790560
16929 16928 16930 1 119.8800511 375.723200
16928 16930 16931 1 119.8800511 375.723200
16928 16930 16932 1 120.0200517 532.790560
16931 16930 16932 1 119.8800511 375.723200
16930 16932 16933 1 119.8800511 375.723200
16930 16932 16934 1 120.0200517 532.790560
16933 16932 16934 1 119.8800511 375.723200
16925 16934 16932 1 120.0200517 532.790560
16925 16934 16935 1 119.8800511 375.723200
16932 16934 16935 1 119.8800511 375.723200
16927 16936 16937 1 115.00000 209.200000
16938 16939 16940 1 119.8800511 375.723200
16938 16939 16948 1 119.8800511 375.723200
16940 16939 16948 1 120.0200517 532.790560
16939 16940 16941 1 121.3800518 83.010560
16939 16940 16942 1 120.0200517 532.790560
16941 16940 16942 1 121.3800518 83.010560
5043 16941 5044 1 109.50000 418.400000
5043 16941 16940 1 103.70004 836.800000
5043 16941 16950 1 109.50000 418.400000
5044 16941 16940 1 103.70004 836.800000
5044 16941 16950 1 109.50000 418.400000
16940 16941 16950 1 103.70004 1034.033760
16940 16942 16943 1 119.8800511 375.723200
16940 16942 16944 1 120.0200517 532.790560
16943 16942 16944 1 119.8800511 375.723200
16942 16944 16945 1 119.8800511 375.723200
16942 16944 16946 1 120.0200517 532.790560
16945 16944 16946 1 119.8800511 375.723200
16944 16946 16947 1 119.8800511 375.723200
16944 16946 16948 1 120.0200517 532.790560
16947 16946 16948 1 119.8800511 375.723200
16939 16948 16946 1 120.0200517 532.790560
16939 16948 16949 1 119.8800511 375.723200
16946 16948 16949 1 119.8800511 375.723200
16941 16950 16951 1 115.00000 209.200000
16952 16953 16954 1 119.8800511 375.723200
16952 16953 16962 1 119.8800511 375.723200
16954 16953 16962 1 120.0200517 532.790560
16953 16954 16955 1 121.3800518 83.010560
16953 16954 16956 1 120.0200517 532.790560
16955 16954 16956 1 121.3800518 83.010560
7399 16955 7400 1 109.50000 418.400000
7399 16955 16954 1 103.70004 836.800000
7399 16955 16964 1 109.50000 418.400000
7400 16955 16954 1 103.70004 836.800000
7400 16955 16964 1 109.50000 418.400000
16954 16955 16964 1 103.70004 1034.033760
16954 16956 16957 1 119.8800511 375.723200
16954 16956 16958 1 120.0200517 532.790560
16957 16956 16958 1 119.8800511 375.723200
16956 16958 16959 1 119.8800511 375.723200
16956 16958 16960 1 120.0200517 532.790560
16959 16958 16960 1 119.8800511 375.723200
16958 16960 16961 1 119.8800511 375.723200
16958 16960 16962 1 120.0200517 532.790560
16961 16960 16962 1 119.8800511 375.723200
16953 16962 16960 1 120.0200517 532.790560
16953 16962 16963 1 119.8800511 375.723200
16960 16962 16963 1 119.8800511 375.723200
16955 16964 16965 1 115.00000 209.200000
16966 16967 16968 1 119.8800511 375.723200
16966 16967 16976 1 119.8800511 375.723200
16968 16967 16976 1 120.0200517 532.790560
16967 16968 16969 1 121.3800518 83.010560
16967 16968 16970 1 120.0200517 532.790560
16969 16968 16970 1 121.3800518 83.010560
2914 16969 5091 1 109.50000 418.400000
2914 16969 16968 1 103.70004 836.800000
2914 16969 16978 1 109.50000 418.400000
5091 16969 16968 1 103.70004 836.800000
5091 16969 16978 1 109.50000 418.400000
16968 16969 16978 1 103.70004 1034.033760
16968 16970 16971 1 119.8800511 375.723200
16968 16970 16972 1 120.0200517 532.790560
16971 16970 16972 1 119.8800511 375.723200
16970 16972 16973 1 119.8800511 375.723200
16970 16972 16974 1 120.0200517 532.790560
16973 16972 16974 1 119.8800511 375.723200
16972 16974 16975 1 119.8800511 375.723200
16972 16974 16976 1 120.0200517 532.790560
16975 16974 16976 1 119.8800511 375.723200
16967 16976 16974 1 120.0200517 532.790560
16967 16976 16977 1 119.8800511 375.723200
16974 16976 16977 1 119.8800511 375.723200
16969 16978 16979 1 115.00000 209.200000
16980 16981 16982 1 119.8800511 375.723200
16980 16981 16990 1 119.8800511 375.723200
16982 16981 16990 1 120.0200517 532.790560
16981 16982 16983 1 121.3800518 83.010560
16981 16982 16984 1 120.0200517 532.790560
16983 16982 16984 1 121.3800518 83.010560
1864 16983 1987 1 109.50000 418.400000
1864 16983 16982 1 103.70004 836.800000
1864 16983 16992 1 109.50000 418.400000
1987 16983 16982 1 103.70004 836.800000
1987 16983 16992 1 109.50000 418.400000
16982 16983 16992 1 103.70004 1034.033760
16982 16984 16985 1 119.8800511 375.723200
16982 16984 16986 1 120.0200517 532.790560
16985 16984 16986 1 119.8800511 375.723200
16984 16986 16987 1 119.8800511 375.723200
16984 16986 16988 1 120.0200517 532.790560
16987 16986 16988 1 119.8800511 375.723200
16986 16988 16989 1 119.8800511 375.723200
16986 16988 16990 1 120.0200517 532.790560
16989 16988 16990 1 119.8800511 375.723200
16981 16990 16988 1 120.0200517 532.790560
16981 16990 16991 1 119.8800511 375.723200
16988 16990 16991 1 119.8800511 375.723200
16983 16992 16993 1 115.00000 209.200000
16994 16995 16996 1 119.8800511 375.723200
16994 16995 17004 1 119.8800511 375.723200
16996 16995 17004 1 120.0200517 532.790560
16995 16996 16997 1 121.3800518 83.010560
16995 16996 16998 1 120.0200517 532.790560
16997 16996 16998 1 121.3800518 83.010560
1180 16997 2990 1 109.50000 418.400000
1180 16997 16996 1 103.70004 836.800000
1180 16997 17006 1 109.50000 418.400000
2990 16997 16996 1 103.70004 836.800000
2990 16997 17006 1 109.50000 418.400000
16996 16997 17006 1 103.70004 1034.033760
16996 16998 16999 1 119.8800511 375.723200
16996 16998 17000 1 120.0200517 532.790560
16999 16998 17000 1 119.8800511 375.723200
16998 17000 17001 1 119.8800511 375.723200
16998 17000 17002 1 120.0200517 532.790560
17001 17000 17002 1 119.8800511 375.723200
17000 17002 17003 1 119.8800511 375.723200
17000 17002 17004 1 120.0200517 532.790560
17003 17002 17004 1 119.8800511 375.723200
16995 17004 17002 1 120.0200517 532.790560
16995 17004 17005 1 119.8800511 375.723200
17002 17004 17005 1 119.8800511 375.723200
16997 17006 17007 1 115.00000 209.200000
17008 17009 17010 1 119.8800511 375.723200
17008 17009 17018 1 119.8800511 375.723200
17010 17009 17018 1 120.0200517 532.790560
17009 17010 17011 1 121.3800518 83.010560
17009 17010 17012 1 120.0200517 532.790560
17011 17010 17012 1 121.3800518 83.010560
205 17011 1944 1 109.50000 418.400000
205 17011 17010 1 103.70004 836.800000
205 17011 17020 1 109.50000 418.400000
1944 17011 17010 1 103.70004 836.800000
1944 17011 17020 1 109.50000 418.400000
17010 17011 17020 1 103.70004 1034.033760
17010 17012 17013 1 119.8800511 375.723200
17010 17012 17014 1 120.0200517 532.790560
17013 17012 17014 1 119.8800511 375.723200
17012 17014 17015 1 119.8800511 375.723200
17012 17014 17016 1 120.0200517 532.790560
17015 17014 17016 1 119.8800511 375.723200
17014 17016 17017 1 119.8800511 375.723200
17014 17016 17018 1 120.0200517 532.790560
17017 17016 17018 1 119.8800511 375.723200
17009 17018 17016 1 120.0200517 532.790560
17009 17018 17019 1 119.8800511 375.723200
17016 17018 17019 1 119.8800511 375.723200
17011 17020 17021 1 115.00000 209.200000
17022 17023 17024 1 119.8800511 375.723200
17022 17023 17032 1 119.8800511 375.723200
17024 17023 17032 1 120.0200517 532.790560
17023 17024 17025 1 121.3800518 83.010560
17023 17024 17026 1 120.0200517 532.790560
17025 17024 17026 1 121.3800518 83.010560
5709 17025 6741 1 109.50000 418.400000
5709 17025 17024 1 103.70004 836.800000
5709 17025 17034 1 109.50000 418.400000
6741 17025 17024 1 103.70004 836.800000
6741 17025 17034 1 109.50000 418.400000
17024 17025 17034 1 103.70004 1034.033760
17024 17026 17027 1 119.8800511 375.723200
17024 17026 17028 1 120.0200517 532.790560
17027 17026 17028 1 119.8800511 375.723200
17026 17028 17029 1 119.8800511 375.723200
17026 17028 17030 1 120.0200517 532.790560
17029 17028 17030 1 119.8800511 375.723200
17028 17030 17031 1 119.8800511 375.723200
17028 17030 17032 1 120.0200517 532.790560
17031 17030 17032 1 119.8800511 375.723200
17023 17032 17030 1 120.0200517 532.790560
17023 17032 17033 1 119.8800511 375.723200
17030 17032 17033 1 119.8800511 375.723200
17025 17034 17035 1 115.00000 209.200000
17036 17037 17038 1 119.8800511 375.723200
17036 17037 17046 1 119.8800511 375.723200
17038 17037 17046 1 120.0200517 532.790560
17037 17038 17039 1 121.3800518 83.010560
17037 17038 17040 1 120.0200517 532.790560
17039 17038 17040 1 121.3800518 83.010560
9764 17039 9765 1 109.50000 418.400000
9764 17039 17038 1 103.70004 836.800000
9764 17039 17048 1 109.50000 418.400000
9765 17039 17038 1 103.70004 836.800000
9765 17039 17048 1 109.50000 418.400000
17038 17039 17048 1 103.70004 1034.033760
17038 17040 17041 1 119.8800511 375.723200
17038 17040 17042 1 120.0200517 532.790560
17041 17040 17042 1 119.8800511 375.723200
17040 17042 17043 1 119.8800511 375.723200
17040 17042 17044 1 120.0200517 532.790560
17043 17042 17044 1 119.8800511 375.723200
17042 17044 17045 1 119.8800511 375.723200
17042 17044 17046 1 120.0200517 532.790560
17045 17044 17046 1 119.8800511 375.723200
17037 17046 17044 1 120.0200517 532.790560
17037 17046 17047 1 119.8800511 375.723200
17044 17046 17047 1 119.8800511 375.723200
17039 17048 17049 1 115.00000 209.200000
17050 17051 17052 1 119.8800511 375.723200
17050 17051 17060 1 119.8800511 375.723200
17052 17051 17060 1 120.0200517 532.790560
17051 17052 17053 1 121.3800518 83.010560
17051 17052 17054 1 120.0200517 532.790560
17053 17052 17054 1 121.3800518 83.010560
5373 17053 5374 1 109.50000 418.400000
5373 17053 17052 1 103.70004 836.800000
5373 17053 17062 1 109.50000 418.400000
5374 17053 17052 1 103.70004 836.800000
5374 17053 17062 1 109.50000 418.400000
17052 17053 17062 1 103.70004 1034.033760
17052 17054 17055 1 119.8800511 375.723200
17052 17054 17056 1 120.0200517 532.790560
17055 17054 17056 1 119.8800511 375.723200
17054 17056 17057 1 119.8800511 375.723200
17054 17056 17058 1 120.0200517 532.790560
17057 17056 17058 1 119.8800511 375.723200
17056 17058 17059 1 119.8800511 375.723200
17056 17058 17060 1 120.0200517 532.790560
17059 17058 17060 1 119.8800511 375.723200
17051 17060 17058 1 120.0200517 532.790560
17051 17060 17061 1 119.8800511 375.723200
17058 17060 17061 1 119.8800511 375.723200
17053 17062 17063 1 115.00000 209.200000
17064 17065 17066 1 119.8800511 375.723200
17064 17065 17074 1 119.8800511 375.723200
17066 17065 17074 1 120.0200517 532.790560
17065 17066 17067 1 121.3800518 83.010560
17065 17066 17068 1 120.0200517 532.790560
17067 17066 17068 1 121.3800518 83.010560
61 17067 8916 1 109.50000 418.400000
61 17067 17066 1 103.70004 836.800000
61 17067 17076 1 109.50000 418.400000
8916 17067 17066 1 103.70004 836.800000
8916 17067 17076 1 109.50000 418.400000
17066 17067 17076 1 103.70004 1034.033760
17066 17068 17069 1 119.8800511 375.723200
17066 17068 17070 1 120.0200517 532.790560
17069 17068 17070 1 119.8800511 375.723200
17068 17070 17071 1 119.8800511 375.723200
17068 17070 17072 1 120.0200517 532.790560
17071 17070 17072 1 119.8800511 375.723200
17070 17072 17073 1 119.8800511 375.723200
17070 17072 17074 1 120.0200517 532.790560
17073 17072 17074 1 119.8800511 375.723200
17065 17074 17072 1 120.0200517 532.790560
17065 17074 17075 1 119.8800511 375.723200
17072 17074 17075 1 119.8800511 375.723200
17067 17076 17077 1 115.00000 209.200000
17078 17079 17080 1 119.8800511 375.723200
17078 17079 17088 1 119.8800511 375.723200
17080 17079 17088 1 120.0200517 532.790560
17079 17080 17081 1 121.3800518 83.010560
17079 17080 17082 1 120.0200517 532.790560
17081 17080 17082 1 121.3800518 83.010560
1414 17081 4971 1 109.50000 418.400000
1414 17081 17080 1 103.70004 836.800000
1414 17081 17090 1 109.50000 418.400000
4971 17081 17080 1 103.70004 836.800000
4971 17081 17090 1 109.50000 418.400000
17080 17081 17090 1 103.70004 1034.033760
17080 17082 17083 1 119.8800511 375.723200
17080 17082 17084 1 120.0200517 532.790560
17083 17082 17084 1 119.8800511 375.723200
17082 17084 17085 1 119.8800511 375.723200
17082 17084 17086 1 120.0200517 532.790560
17085 17084 17086 1 119.8800511 375.723200
17084 17086 17087 1 119.8800511 375.723200
17084 17086 17088 1 120.0200517 532.790560
17087 17086 17088 1 119.8800511 375.723200
17079 17088 17086 1 120.0200517 532.790560
17079 17088 17089 1 119.8800511 375.723200
17086 17088 17089 1 119.8800511 375.723200
17081 17090 17091 1 115.00000 209.200000
17092 17093 17094 1 119.8800511 375.723200
17092 17093 17102 1 119.8800511 375.723200
17094 17093 17102 1 120.0200517 532.790560
17093 17094 17095 1 121.3800518 83.010560
17093 17094 17096 1 120.0200517 532.790560
17095 17094 17096 1 121.3800518 83.010560
4861 17095 4862 1 109.50000 418.400000
4861 17095 17094 1 103.70004 836.800000
4861 17095 17104 1 109.50000 418.400000
4862 17095 17094 1 103.70004 836.800000
4862 17095 17104 1 109.50000 418.400000
17094 17095 17104 1 103.70004 1034.033760
17094 17096 17097 1 119.8800511 375.723200
17094 17096 17098 1 120.0200517 532.790560
17097 17096 17098 1 119.8800511 375.723200
17096 17098 17099 1 119.8800511 375.723200
17096 17098 17100 1 120.0200517 532.790560
17099 17098 17100 1 119.8800511 375.723200
17098 17100 17101 1 119.8800511 375.723200
17098 17100 17102 1 120.0200517 532.790560
17101 17100 17102 1 119.8800511 375.723200
17093 17102 17100 1 120.0200517 532.790560
17093 17102 17103 1 119.8800511 375.723200
17100 17102 17103 1 119.8800511 375.723200
17095 17104 17105 1 115.00000 209.200000
17106 17107 17108 1 119.8800511 375.723200
17106 17107 17116 1 119.8800511 375.723200
17108 17107 17116 1 120.0200517 532.790560
17107 17108 17109 1 121.3800518 83.010560
17107 17108 17110 1 120.0200517 532.790560
17109 17108 17110 1 121.3800518 83.010560
1686 17109 8093 1 109.50000 418.400000
1686 17109 17108 1 103.70004 836.800000
1686 17109 17118 1 109.50000 418.400000
8093 17109 17108 1 103.70004 836.800000
8093 17109 17118 1 109.50000 418.400000
17108 17109 17118 1 103.70004 1034.033760
17108 17110 17111 1 119.8800511 375.723200
17108 17110 17112 1 120.0200517 532.790560
17111 17110 17112 1 119.8800511 375.723200
17110 17112 17113 1 119.8800511 375.723200
17110 17112 17114 1 120.0200517 532.790560
17113 17112 17114 1 119.8800511 375.723200
17112 17114 17115 1 119.8800511 375.723200
17112 17114 17116 1 120.0200517 532.790560
17115 17114 17116 1 119.8800511 375.723200
17107 17116 17114 1 120.0200517 532.790560
17107 17116 17117 1 119.8800511 375.723200
17114 17116 17117 1 119.8800511 375.723200
17109 17118 17119 1 115.00000 209.200000
17120 17121 17122 1 119.8800511 375.723200
17120 17121 17130 1 119.8800511 375.723200
17122 17121 17130 1 120.0200517 532.790560
17121 17122 17123 1 121.3800518 83.010560
17121 17122 17124 1 120.0200517 532.790560
17123 17122 17124 1 121.3800518 83.010560
2780 17123 4587 1 109.50000 418.400000
2780 17123 17122 1 103.70004 836.800000
2780 17123 17132 1 109.50000 418.400000
4587 17123 17122 1 103.70004 836.800000
4587 17123 17132 1 109.50000 418.400000
17122 17123 17132 1 103.70004 1034.033760
17122 17124 17125 1 119.8800511 375.723200
17122 17124 17126 1 120.0200517 532.790560
17125 17124 17126 1 119.8800511 375.723200
17124 17126 17127 1 119.8800511 375.723200
17124 17126 17128 1 120.0200517 532.790560
17127 17126 17128 1 119.8800511 375.723200
17126 17128 17129 1 119.8800511 375.723200
17126 17128 17130 1 120.0200517 532.790560
17129 17128 17130 1 119.8800511 375.723200
17121 17130 17128 1 120.0200517 532.790560
17121 17130 17131 1 119.8800511 375.723200
17128 17130 17131 1 119.8800511 375.723200
17123 17132 17133 1 115.00000 209.200000
17134 17135 17136 1 119.8800511 375.723200
17134 17135 17144 1 119.8800511 375.723200
17136 17135 17144 1 120.0200517 532.790560
17135 17136 17137 1 121.3800518 83.010560
17135 17136 17138 1 120.0200517 532.790560
17137 17136 17138 1 121.3800518 83.010560
6642 17137 10330 1 109.50000 418.400000
6642 17137 17136 1 103.70004 836.800000
6642 17137 17146 1 109.50000 418.400000
10330 17137 17136 1 103.70004 836.800000
10330 17137 17146 1 109.50000 418.400000
17136 17137 17146 1 103.70004 1034.033760
17136 17138 17139 1 119.8800511 375.723200
17136 17138 17140 1 120.0200517 532.790560
17139 17138 17140 1 119.8800511 375.723200
17138 17140 17141 1 119.8800511 375.723200
17138 17140 17142 1 120.0200517 532.790560
17141 17140 17142 1 119.8800511 375.723200
17140 17142 17143 1 119.8800511 375.723200
17140 17142 17144 1 120.0200517 532.790560
17143 17142 17144 1 119.8800511 375.723200
17135 17144 17142 1 120.0200517 532.790560
17135 17144 17145 1 119.8800511 375.723200
17142 17144 17145 1 119.8800511 375.723200
17137 17146 17147 1 115.00000 209.200000
17148 17149 17150 1 119.8800511 375.723200
17148 17149 17158 1 119.8800511 375.723200
17150 17149 17158 1 120.0200517 532.790560
17149 17150 17151 1 121.3800518 83.010560
17149 17150 17152 1 120.0200517 532.790560
17151 17150 17152 1 121.3800518 83.010560
1742 17151 8259 1 109.50000 418.400000
1742 17151 17150 1 103.70004 836.800000
1742 17151 17160 1 109.50000 418.400000
8259 17151 17150 1 103.70004 836.800000
8259 17151 17160 1 109.50000 418.400000
17150 17151 17160 1 103.70004 1034.033760
17150 17152 17153 1 119.8800511 375.723200
17150 17152 17154 1 120.0200517 532.790560
17153 17152 17154 1 119.8800511 375.723200
17152 17154 17155 1 119.8800511 375.723200
17152 17154 17156 1 120.0200517 532.790560
17155 17154 17156 1 119.8800511 375.723200
17154 17156 17157 1 119.8800511 375.723200
17154 17156 17158 1 120.0200517 532.790560
17157 17156 17158 1 119.8800511 375.723200
17149 17158 17156 1 120.0200517 532.790560
17149 17158 17159 1 119.8800511 375.723200
17156 17158 17159 1 119.8800511 375.723200
17151 17160 17161 1 115.00000 209.200000
17162 17163 17164 1 119.8800511 375.723200
17162 17163 17172 1 119.8800511 375.723200
17164 17163 17172 1 120.0200517 532.790560
17163 17164 17165 1 121.3800518 83.010560
17163 17164 17166 1 120.0200517 532.790560
17165 17164 17166 1 121.3800518 83.010560
779 17165 9193 1 109.50000 418.400000
779 17165 17164 1 103.70004 836.800000
779 17165 17174 1 109.50000 418.400000
9193 17165 17164 1 103.70004 836.800000
9193 17165 17174 1 109.50000 418.400000
17164 17165 17174 1 103.70004 1034.033760
17164 17166 17167 1 119.8800511 375.723200
17164 17166 17168 1 120.0200517 532.790560
17167 17166 17168 1 119.8800511 375.723200
17166 17168 17169 1 119.8800511 375.723200
17166 17168 17170 1 120.0200517 532.790560
17169 17168 17170 1 119.8800511 375.723200
17168 17170 17171 1 119.8800511 375.723200
17168 17170 17172 1 120.0200517 532.790560
17171 17170 17172 1 119.8800511 375.723200
17163 17172 17170 1 120.0200517 532.790560
17163 17172 17173 1 119.8800511 375.723200
17170 17172 17173 1 119.8800511 375.723200
17165 17174 17175 1 115.00000 209.200000
17176 17177 17178 1 119.8800511 375.723200
17176 17177 17186 1 119.8800511 375.723200
17178 17177 17186 1 120.0200517 532.790560
17177 17178 17179 1 121.3800518 83.010560
17177 17178 17180 1 120.0200517 532.790560
17179 17178 17180 1 121.3800518 83.010560
491 17179 5846 1 109.50000 418.400000
491 17179 17178 1 103.70004 836.800000
491 17179 17188 1 109.50000 418.400000
5846 17179 17178 1 103.70004 836.800000
5846 17179 17188 1 109.50000 418.400000
17178 17179 17188 1 103.70004 1034.033760
17178 17180 17181 1 119.8800511 375.723200
17178 17180 17182 1 120.0200517 532.790560
17181 17180 17182 1 119.8800511 375.723200
17180 17182 17183 1 119.8800511 375.723200
17180 17182 17184 1 120.0200517 532.790560
17183 17182 17184 1 119.8800511 375.723200
17182 17184 17185 1 119.8800511 375.723200
17182 17184 17186 1 120.0200517 532.790560
17185 17184 17186 1 119.8800511 375.723200
17177 17186 17184 1 120.0200517 532.790560
17177 17186 17187 1 119.8800511 375.723200
17184 17186 17187 1 119.8800511 375.723200
17179 17188 17189 1 115.00000 209.200000
17190 17191 17192 1 119.8800511 375.723200
17190 17191 17200 1 119.8800511 375.723200
17192 17191 17200 1 120.0200517 532.790560
17191 17192 17193 1 121.3800518 83.010560
17191 17192 17194 1 120.0200517 532.790560
17193 17192 17194 1 121.3800518 83.010560
245 17193 9797 1 109.50000 418.400000
245 17193 17192 1 103.70004 836.800000
245 17193 17202 1 109.50000 418.400000
9797 17193 17192 1 103.70004 836.800000
9797 17193 17202 1 109.50000 418.400000
17192 17193 17202 1 103.70004 1034.033760
17192 17194 17195 1 119.8800511 375.723200
17192 17194 17196 1 120.0200517 532.790560
17195 17194 17196 1 119.8800511 375.723200
17194 17196 17197 1 119.8800511 375.723200
17194 17196 17198 1 120.0200517 532.790560
17197 17196 17198 1 119.8800511 375.723200
17196 17198 17199 1 119.8800511 375.723200
17196 17198 17200 1 120.0200517 532.790560
17199 17198 17200 1 119.8800511 375.723200
17191 17200 17198 1 120.0200517 532.790560
17191 17200 17201 1 119.8800511 375.723200
17198 17200 17201 1 119.8800511 375.723200
17193 17202 17203 1 115.00000 209.200000
17204 17205 17206 1 119.8800511 375.723200
17204 17205 17214 1 119.8800511 375.723200
17206 17205 17214 1 120.0200517 532.790560
17205 17206 17207 1 121.3800518 83.010560
17205 17206 17208 1 120.0200517 532.790560
17207 17206 17208 1 121.3800518 83.010560
4815 17207 4816 1 109.50000 418.400000
4815 17207 17206 1 103.70004 836.800000
4815 17207 17216 1 109.50000 418.400000
4816 17207 17206 1 103.70004 836.800000
4816 17207 17216 1 109.50000 418.400000
17206 17207 17216 1 103.70004 1034.033760
17206 17208 17209 1 119.8800511 375.723200
17206 17208 17210 1 120.0200517 532.790560
17209 17208 17210 1 119.8800511 375.723200
17208 17210 17211 1 119.8800511 375.723200
17208 17210 17212 1 120.0200517 532.790560
17211 17210 17212 1 119.8800511 375.723200
17210 17212 17213 1 119.8800511 375.723200
17210 17212 17214 1 120.0200517 532.790560
17213 17212 17214 1 119.8800511 375.723200
17205 17214 17212 1 120.0200517 532.790560
17205 17214 17215 1 119.8800511 375.723200
17212 17214 17215 1 119.8800511 375.723200
17207 17216 17217 1 115.00000 209.200000
17218 17219 17220 1 119.8800511 375.723200
17218 17219 17228 1 119.8800511 375.723200
17220 17219 17228 1 120.0200517 532.790560
17219 17220 17221 1 121.3800518 83.010560
17219 17220 17222 1 120.0200517 532.790560
17221 17220 17222 1 121.3800518 83.010560
2176 17221 9500 1 109.50000 418.400000
2176 17221 17220 1 103.70004 836.800000
2176 17221 17230 1 109.50000 418.400000
9500 17221 17220 1 103.70004 836.800000
9500 17221 17230 1 109.50000 418.400000
17220 17221 17230 1 103.70004 1034.033760
17220 17222 17223 1 119.8800511 375.723200
17220 17222 17224 1 120.0200517 532.790560
17223 17222 17224 1 119.8800511 375.723200
17222 17224 17225 1 119.8800511 375.723200
17222 17224 17226 1 120.0200517 532.790560
17225 17224 17226 1 119.8800511 375.723200
17224 17226 17227 1 119.8800511 375.723200
17224 17226 17228 1 120.0200517 532.790560
17227 17226 17228 1 119.8800511 375.723200
17219 17228 17226 1 120.0200517 532.790560
17219 17228 17229 1 119.8800511 375.723200
17226 17228 17229 1 119.8800511 375.723200
17221 17230 17231 1 115.00000 209.200000
17232 17233 17234 1 119.8800511 375.723200
17232 17233 17242 1 119.8800511 375.723200
17234 17233 17242 1 120.0200517 532.790560
17233 17234 17235 1 121.3800518 83.010560
17233 17234 17236 1 120.0200517 532.790560
17235 17234 17236 1 121.3800518 83.010560
460 17235 4886 1 109.50000 418.400000
460 17235 17234 1 103.70004 836.800000
460 17235 17244 1 109.50000 418.400000
4886 17235 17234 1 103.70004 836.800000
4886 17235 17244 1 109.50000 418.400000
17234 17235 17244 1 103.70004 1034.033760
17234 17236 17237 1 119.8800511 375.723200
17234 17236 17238 1 120.0200517 532.790560
17237 17236 17238 1 119.8800511 375.723200
17236 17238 17239 1 119.8800511 375.723200
17236 17238 17240 1 120.0200517 532.790560
17239 17238 17240 1 119.8800511 375.723200
17238 17240 17241 1 119.8800511 375.723200
17238 17240 17242 1 120.0200517 532.790560
17241 17240 17242 1 119.8800511 375.723200
17233 17242 17240 1 120.0200517 532.790560
17233 17242 17243 1 119.8800511 375.723200
17240 17242 17243 1 119.8800511 375.723200
17235 17244 17245 1 115.00000 209.200000
17246 17247 17248 1 119.8800511 375.723200
17246 17247 17256 1 119.8800511 375.723200
17248 17247 17256 1 120.0200517 532.790560
17247 17248 17249 1 121.3800518 83.010560
17247 17248 17250 1 120.0200517 532.790560
17249 17248 17250 1 121.3800518 83.010560
6486 17249 7363 1 109.50000 418.400000
6486 17249 17248 1 103.70004 836.800000
6486 17249 17258 1 109.50000 418.400000
7363 17249 17248 1 103.70004 836.800000
7363 17249 17258 1 109.50000 418.400000
17248 17249 17258 1 103.70004 1034.033760
17248 17250 17251 1 119.8800511 375.723200
17248 17250 17252 1 120.0200517 532.790560
17251 17250 17252 1 119.8800511 375.723200
17250 17252 17253 1 119.8800511 375.723200
17250 17252 17254 1 120.0200517 532.790560
17253 17252 17254 1 119.8800511 375.723200
17252 17254 17255 1 119.8800511 375.723200
17252 17254 17256 1 120.0200517 532.790560
17255 17254 17256 1 119.8800511 375.723200
17247 17256 17254 1 120.0200517 532.790560
17247 17256 17257 1 119.8800511 375.723200
17254 17256 17257 1 119.8800511 375.723200
17249 17258 17259 1 115.00000 209.200000
17260 17261 17262 1 119.8800511 375.723200
17260 17261 17270 1 119.8800511 375.723200
17262 17261 17270 1 120.0200517 532.790560
17261 17262 17263 1 121.3800518 83.010560
17261 17262 17264 1 120.0200517 532.790560
17263 17262 17264 1 121.3800518 83.010560
601 17263 8459 1 109.50000 418.400000
601 17263 17262 1 103.70004 836.800000
601 17263 17272 1 109.50000 418.400000
8459 17263 17262 1 103.70004 836.800000
8459 17263 17272 1 109.50000 418.400000
17262 17263 17272 1 103.70004 1034.033760
17262 17264 17265 1 119.8800511 375.723200
17262 17264 17266 1 120.0200517 532.790560
17265 17264 17266 1 119.8800511 375.723200
17264 17266 17267 1 119.8800511 375.723200
17264 17266 17268 1 120.0200517 532.790560
17267 17266 17268 1 119.8800511 375.723200
17266 17268 17269 1 119.8800511 375.723200
17266 17268 17270 1 120.0200517 532.790560
17269 17268 17270 1 119.8800511 375.723200
17261 17270 17268 1 120.0200517 532.790560
17261 17270 17271 1 119.8800511 375.723200
17268 17270 17271 1 119.8800511 375.723200
17263 17272 17273 1 115.00000 209.200000
17274 17275 17276 1 119.8800511 375.723200
17274 17275 17284 1 119.8800511 375.723200
17276 17275 17284 1 120.0200517 532.790560
17275 17276 17277 1 121.3800518 83.010560
17275 17276 17278 1 120.0200517 532.790560
17277 17276 17278 1 121.3800518 83.010560
5258 17277 6199 1 109.50000 418.400000
5258 17277 17276 1 103.70004 836.800000
5258 17277 17286 1 109.50000 418.400000
6199 17277 17276 1 103.70004 836.800000
6199 17277 17286 1 109.50000 418.400000
17276 17277 17286 1 103.70004 1034.033760
17276 17278 17279 1 119.8800511 375.723200
17276 17278 17280 1 120.0200517 532.790560
17279 17278 17280 1 119.8800511 375.723200
17278 17280 17281 1 119.8800511 375.723200
17278 17280 17282 1 120.0200517 532.790560
17281 17280 17282 1 119.8800511 375.723200
17280 17282 17283 1 119.8800511 375.723200
17280 17282 17284 1 120.0200517 532.790560
17283 17282 17284 1 119.8800511 375.723200
17275 17284 17282 1 120.0200517 532.790560
17275 17284 17285 1 119.8800511 375.723200
17282 17284 17285 1 119.8800511 375.723200
17277 17286 17287 1 115.00000 209.200000
17288 17289 17290 1 119.8800511 375.723200
17288 17289 17298 1 119.8800511 375.723200
17290 17289 17298 1 120.0200517 532.790560
17289 17290 17291 1 121.3800518 83.010560
17289 17290 17292 1 120.0200517 532.790560
17291 17290 17292 1 121.3800518 83.010560
8617 17291 8618 1 109.50000 418.400000
8617 17291 17290 1 103.70004 836.800000
8617 17291 17300 1 109.50000 418.400000
8618 17291 17290 1 103.70004 836.800000
8618 17291 17300 1 109.50000 418.400000
17290 17291 17300 1 103.70004 1034.033760
17290 17292 17293 1 119.8800511 375.723200
17290 17292 17294 1 120.0200517 532.790560
17293 17292 17294 1 119.8800511 375.723200
17292 17294 17295 1 119.8800511 375.723200
17292 17294 17296 1 120.0200517 532.790560
17295 17294 17296 1 119.8800511 375.723200
17294 17296 17297 1 119.8800511 375.723200
17294 17296 17298 1 120.0200517 532.790560
17297 17296 17298 1 119.8800511 375.723200
17289 17298 17296 1 120.0200517 532.790560
17289 17298 17299 1 119.8800511 375.723200
17296 17298 17299 1 119.8800511 375.723200
17291 17300 17301 1 115.00000 209.200000
17302 17303 17304 1 119.8800511 375.723200
17302 17303 17312 1 119.8800511 375.723200
17304 17303 17312 1 120.0200517 532.790560
17303 17304 17305 1 121.3800518 83.010560
17303 17304 17306 1 120.0200517 532.790560
17305 17304 17306 1 121.3800518 83.010560
4318 17305 9492 1 109.50000 418.400000
4318 17305 17304 1 103.70004 836.800000
4318 17305 17314 1 109.50000 418.400000
9492 17305 17304 1 103.70004 836.800000
9492 17305 17314 1 109.50000 418.400000
17304 17305 17314 1 103.70004 1034.033760
17304 17306 17307 1 119.8800511 375.723200
17304 17306 17308 1 120.0200517 532.790560
17307 17306 17308 1 119.8800511 375.723200
17306 17308 17309 1 119.8800511 375.723200
17306 17308 17310 1 120.0200517 532.790560
17309 17308 17310 1 119.8800511 375.723200
17308 17310 17311 1 119.8800511 375.723200
17308 17310 17312 1 120.0200517 532.790560
17311 17310 17312 1 119.8800511 375.723200
17303 17312 17310 1 120.0200517 532.790560
17303 17312 17313 1 119.8800511 375.723200
17310 17312 17313 1 119.8800511 375.723200
17305 17314 17315 1 115.00000 209.200000
17316 17317 17318 1 119.8800511 375.723200
17316 17317 17326 1 119.8800511 375.723200
17318 17317 17326 1 120.0200517 532.790560
17317 17318 17319 1 121.3800518 83.010560
17317 17318 17320 1 120.0200517 532.790560
17319 17318 17320 1 121.3800518 83.010560
1470 17319 1471 1 109.50000 418.400000
1470 17319 17318 1 103.70004 836.800000
1470 17319 17328 1 109.50000 418.400000
1471 17319 17318 1 103.70004 836.800000
1471 17319 17328 1 109.50000 418.400000
17318 17319 17328 1 103.70004 1034.033760
17318 17320 17321 1 119.8800511 375.723200
17318 17320 17322 1 120.0200517 532.790560
17321 17320 17322 1 119.8800511 375.723200
17320 17322 17323 1 119.8800511 375.723200
17320 17322 17324 1 120.0200517 532.790560
17323 17322 17324 1 119.8800511 375.723200
17322 17324 17325 1 119.8800511 375.723200
17322 17324 17326 1 120.0200517 532.790560
17325 17324 17326 1 119.8800511 375.723200
17317 17326 17324 1 120.0200517 532.790560
17317 17326 17327 1 119.8800511 375.723200
17324 17326 17327 1 119.8800511 375.723200
17319 17328 17329 1 115.00000 209.200000
17330 17331 17332 1 119.8800511 375.723200
17330 17331 17340 1 119.8800511 375.723200
17332 17331 17340 1 120.0200517 532.790560
17331 17332 17333 1 121.3800518 83.010560
17331 17332 17334 1 120.0200517 532.790560
17333 17332 17334 1 121.3800518 83.010560
1993 17333 10550 1 109.50000 418.400000
1993 17333 17332 1 103.70004 836.800000
1993 17333 17342 1 109.50000 418.400000
10550 17333 17332 1 103.70004 836.800000
10550 17333 17342 1 109.50000 418.400000
17332 17333 17342 1 103.70004 1034.033760
17332 17334 17335 1 119.8800511 375.723200
17332 17334 17336 1 120.0200517 532.790560
17335 17334 17336 1 119.8800511 375.723200
17334 17336 17337 1 119.8800511 375.723200
17334 17336 17338 1 120.0200517 532.790560
17337 17336 17338 1 119.8800511 375.723200
17336 17338 17339 1 119.8800511 375.723200
17336 17338 17340 1 120.0200517 532.790560
17339 17338 17340 1 119.8800511 375.723200
17331 17340 17338 1 120.0200517 532.790560
17331 17340 17341 1 119.8800511 375.723200
17338 17340 17341 1 119.8800511 375.723200
17333 17342 17343 1 115.00000 209.200000
17344 17345 17346 1 119.8800511 375.723200
17344 17345 17354 1 119.8800511 375.723200
17346 17345 17354 1 120.0200517 532.790560
17345 17346 17347 1 121.3800518 83.010560
17345 17346 17348 1 120.0200517 532.790560
17347 17346 17348 1 121.3800518 83.010560
2587 17347 2588 1 109.50000 418.400000
2587 17347 17346 1 103.70004 836.800000
2587 17347 17356 1 109.50000 418.400000
2588 17347 17346 1 103.70004 836.800000
2588 17347 17356 1 109.50000 418.400000
17346 17347 17356 1 103.70004 1034.033760
17346 17348 17349 1 119.8800511 375.723200
17346 17348 17350 1 120.0200517 532.790560
17349 17348 17350 1 119.8800511 375.723200
17348 17350 17351 1 119.8800511 375.723200
17348 17350 17352 1 120.0200517 532.790560
17351 17350 17352 1 119.8800511 375.723200
17350 17352 17353 1 119.8800511 375.723200
17350 17352 17354 1 120.0200517 532.790560
17353 17352 17354 1 119.8800511 375.723200
17345 17354 17352 1 120.0200517 532.790560
17345 17354 17355 1 119.8800511 375.723200
17352 17354 17355 1 119.8800511 375.723200
17347 17356 17357 1 115.00000 209.200000
17358 17359 17360 1 119.8800511 375.723200
17358 17359 17368 1 119.8800511 375.723200
17360 17359 17368 1 120.0200517 532.790560
17359 17360 17361 1 121.3800518 83.010560
17359 17360 17362 1 120.0200517 532.790560
17361 17360 17362 1 121.3800518 83.010560
5845 17361 7559 1 109.50000 418.400000
5845 17361 17360 1 103.70004 836.800000
5845 17361 17370 1 109.50000 418.400000
7559 17361 17360 1 103.70004 836.800000
7559 17361 17370 1 109.50000 418.400000
17360 17361 17370 1 103.70004 1034.033760
17360 17362 17363 1 119.8800511 375.723200
17360 17362 17364 1 120.0200517 532.790560
17363 17362 17364 1 119.8800511 375.723200
17362 17364 17365 1 119.8800511 375.723200
17362 17364 17366 1 120.0200517 532.790560
17365 17364 17366 1 119.8800511 375.723200
17364 17366 17367 1 119.8800511 375.723200
17364 17366 17368 1 120.0200517 532.790560
17367 17366 17368 1 119.8800511 375.723200
17359 17368 17366 1 120.0200517 532.790560
17359 17368 17369 1 119.8800511 375.723200
17366 17368 17369 1 119.8800511 375.723200
17361 17370 17371 1 115.00000 209.200000
17372 17373 17374 1 119.8800511 375.723200
17372 17373 17382 1 119.8800511 375.723200
17374 17373 17382 1 120.0200517 532.790560
17373 17374 17375 1 121.3800518 83.010560
17373 17374 17376 1 120.0200517 532.790560
17375 17374 17376 1 121.3800518 83.010560
1123 17375 3601 1 109.50000 418.400000
1123 17375 17374 1 103.70004 836.800000
1123 17375 17384 1 109.50000 418.400000
3601 17375 17374 1 103.70004 836.800000
3601 17375 17384 1 109.50000 418.400000
17374 17375 17384 1 103.70004 1034.033760
17374 17376 17377 1 119.8800511 375.723200
17374 17376 17378 1 120.0200517 532.790560
17377 17376 17378 1 119.8800511 375.723200
17376 17378 17379 1 119.8800511 375.723200
17376 17378 17380 1 120.0200517 532.790560
17379 17378 17380 1 119.8800511 375.723200
17378 17380 17381 1 119.8800511 375.723200
17378 17380 17382 1 120.0200517 532.790560
17381 17380 17382 1 119.8800511 375.723200
17373 17382 17380 1 120.0200517 532.790560
17373 17382 17383 1 119.8800511 375.723200
17380 17382 17383 1 119.8800511 375.723200
17375 17384 17385 1 115.00000 209.200000
17386 17387 17388 1 119.8800511 375.723200
17386 17387 17396 1 119.8800511 375.723200
17388 17387 17396 1 120.0200517 532.790560
17387 17388 17389 1 121.3800518 83.010560
17387 17388 17390 1 120.0200517 532.790560
17389 17388 17390 1 121.3800518 83.010560
10053 17389 10545 1 109.50000 418.400000
10053 17389 17388 1 103.70004 836.800000
10053 17389 17398 1 109.50000 418.400000
10545 17389 17388 1 103.70004 836.800000
10545 17389 17398 1 109.50000 418.400000
17388 17389 17398 1 103.70004 1034.033760
17388 17390 17391 1 119.8800511 375.723200
17388 17390 17392 1 120.0200517 532.790560
17391 17390 17392 1 119.8800511 375.723200
17390 17392 17393 1 119.8800511 375.723200
17390 17392 17394 1 120.0200517 532.790560
17393 17392 17394 1 119.8800511 375.723200
17392 17394 17395 1 119.8800511 375.723200
17392 17394 17396 1 120.0200517 532.790560
17395 17394 17396 1 119.8800511 375.723200
17387 17396 17394 1 120.0200517 532.790560
17387 17396 17397 1 119.8800511 375.723200
17394 17396 17397 1 119.8800511 375.723200
17389 17398 17399 1 115.00000 209.200000
17400 17401 17402 1 119.8800511 375.723200
17400 17401 17410 1 119.8800511 375.723200
17402 17401 17410 1 120.0200517 532.790560
17401 17402 17403 1 121.3800518 83.010560
17401 17402 17404 1 120.0200517 532.790560
17403 17402 17404 1 121.3800518 83.010560
2324 17403 2325 1 109.50000 418.400000
2324 17403 17402 1 103.70004 836.800000
2324 17403 17412 1 109.50000 418.400000
2325 17403 17402 1 103.70004 836.800000
2325 17403 17412 1 109.50000 418.400000
17402 17403 17412 1 103.70004 1034.033760
17402 17404 17405 1 119.8800511 375.723200
17402 17404 17406 1 120.0200517 532.790560
17405 17404 17406 1 119.8800511 375.723200
17404 17406 17407 1 119.8800511 375.723200
17404 17406 17408 1 120.0200517 532.790560
17407 17406 17408 1 119.8800511 375.723200
17406 17408 17409 1 119.8800511 375.723200
17406 17408 17410 1 120.0200517 532.790560
17409 17408 17410 1 119.8800511 375.723200
17401 17410 17408 1 120.0200517 532.790560
17401 17410 17411 1 119.8800511 375.723200
17408 17410 17411 1 119.8800511 375.723200
17403 17412 17413 1 115.00000 209.200000
17414 17415 17416 1 119.8800511 375.723200
17414 17415 17424 1 119.8800511 375.723200
17416 17415 17424 1 120.0200517 532.790560
17415 17416 17417 1 121.3800518 83.010560
17415 17416 17418 1 120.0200517 532.790560
17417 17416 17418 1 121.3800518 83.010560
2148 17417 8296 1 109.50000 418.400000
2148 17417 17416 1 103.70004 836.800000
2148 17417 17426 1 109.50000 418.400000
8296 17417 17416 1 103.70004 836.800000
8296 17417 17426 1 109.50000 418.400000
17416 17417 17426 1 103.70004 1034.033760
17416 17418 17419 1 119.8800511 375.723200
17416 17418 17420 1 120.0200517 532.790560
17419 17418 17420 1 119.8800511 375.723200
17418 17420 17421 1 119.8800511 375.723200
17418 17420 17422 1 120.0200517 532.790560
17421 17420 17422 1 119.8800511 375.723200
17420 17422 17423 1 119.8800511 375.723200
17420 17422 17424 1 120.0200517 532.790560
17423 17422 17424 1 119.8800511 375.723200
17415 17424 17422 1 120.0200517 532.790560
17415 17424 17425 1 119.8800511 375.723200
17422 17424 17425 1 119.8800511 375.723200
17417 17426 17427 1 115.00000 209.200000
17428 17429 17430 1 119.8800511 375.723200
17428 17429 17438 1 119.8800511 375.723200
17430 17429 17438 1 120.0200517 532.790560
17429 17430 17431 1 121.3800518 83.010560
17429 17430 17432 1 120.0200517 532.790560
17431 17430 17432 1 121.3800518 83.010560
2421 17431 2591 1 109.50000 418.400000
2421 17431 17430 1 103.70004 836.800000
2421 17431 17440 1 109.50000 418.400000
2591 17431 17430 1 103.70004 836.800000
2591 17431 17440 1 109.50000 418.400000
17430 17431 17440 1 103.70004 1034.033760
17430 17432 17433 1 119.8800511 375.723200
17430 17432 17434 1 120.0200517 532.790560
17433 17432 17434 1 119.8800511 375.723200
17432 17434 17435 1 119.8800511 375.723200
17432 17434 17436 1 120.0200517 532.790560
17435 17434 17436 1 119.8800511 375.723200
17434 17436 17437 1 119.8800511 375.723200
17434 17436 17438 1 120.0200517 532.790560
17437 17436 17438 1 119.8800511 375.723200
17429 17438 17436 1 120.0200517 532.790560
17429 17438 17439 1 119.8800511 375.723200
17436 17438 17439 1 119.8800511 375.723200
17431 17440 17441 1 115.00000 209.200000
17442 17443 17444 1 119.8800511 375.723200
17442 17443 17452 1 119.8800511 375.723200
17444 17443 17452 1 120.0200517 532.790560
17443 17444 17445 1 121.3800518 83.010560
17443 17444 17446 1 120.0200517 532.790560
17445 17444 17446 1 121.3800518 83.010560
2233 17445 2234 1 109.50000 418.400000
2233 17445 17444 1 103.70004 836.800000
2233 17445 17454 1 109.50000 418.400000
2234 17445 17444 1 103.70004 836.800000
2234 17445 17454 1 109.50000 418.400000
17444 17445 17454 1 103.70004 1034.033760
17444 17446 17447 1 119.8800511 375.723200
17444 17446 17448 1 120.0200517 532.790560
17447 17446 17448 1 119.8800511 375.723200
17446 17448 17449 1 119.8800511 375.723200
17446 17448 17450 1 120.0200517 532.790560
17449 17448 17450 1 119.8800511 375.723200
17448 17450 17451 1 119.8800511 375.723200
17448 17450 17452 1 120.0200517 532.790560
17451 17450 17452 1 119.8800511 375.723200
17443 17452 17450 1 120.0200517 532.790560
17443 17452 17453 1 119.8800511 375.723200
17450 17452 17453 1 119.8800511 375.723200
17445 17454 17455 1 115.00000 209.200000
17456 17457 17458 1 119.8800511 375.723200
17456 17457 17466 1 119.8800511 375.723200
17458 17457 17466 1 120.0200517 532.790560
17457 17458 17459 1 121.3800518 83.010560
17457 17458 17460 1 120.0200517 532.790560
17459 17458 17460 1 121.3800518 83.010560
2605 17459 4304 1 109.50000 418.400000
2605 17459 17458 1 103.70004 836.800000
2605 17459 17468 1 109.50000 418.400000
4304 17459 17458 1 103.70004 836.800000
4304 17459 17468 1 109.50000 418.400000
17458 17459 17468 1 103.70004 1034.033760
17458 17460 17461 1 119.8800511 375.723200
17458 17460 17462 1 120.0200517 532.790560
17461 17460 17462 1 119.8800511 375.723200
17460 17462 17463 1 119.8800511 375.723200
17460 17462 17464 1 120.0200517 532.790560
17463 17462 17464 1 119.8800511 375.723200
17462 17464 17465 1 119.8800511 375.723200
17462 17464 17466 1 120.0200517 532.790560
17465 17464 17466 1 119.8800511 375.723200
17457 17466 17464 1 120.0200517 532.790560
17457 17466 17467 1 119.8800511 375.723200
17464 17466 17467 1 119.8800511 375.723200
17459 17468 17469 1 115.00000 209.200000
17470 17471 17472 1 119.8800511 375.723200
17470 17471 17480 1 119.8800511 375.723200
17472 17471 17480 1 120.0200517 532.790560
17471 17472 17473 1 121.3800518 83.010560
17471 17472 17474 1 120.0200517 532.790560
17473 17472 17474 1 121.3800518 83.010560
6417 17473 10082 1 109.50000 418.400000
6417 17473 17472 1 103.70004 836.800000
6417 17473 17482 1 109.50000 418.400000
10082 17473 17472 1 103.70004 836.800000
10082 17473 17482 1 109.50000 418.400000
17472 17473 17482 1 103.70004 1034.033760
17472 17474 17475 1 119.8800511 375.723200
17472 17474 17476 1 120.0200517 532.790560
17475 17474 17476 1 119.8800511 375.723200
17474 17476 17477 1 119.8800511 375.723200
17474 17476 17478 1 120.0200517 532.790560
17477 17476 17478 1 119.8800511 375.723200
17476 17478 17479 1 119.8800511 375.723200
17476 17478 17480 1 120.0200517 532.790560
17479 17478 17480 1 119.8800511 375.723200
17471 17480 17478 1 120.0200517 532.790560
17471 17480 17481 1 119.8800511 375.723200
17478 17480 17481 1 119.8800511 375.723200
17473 17482 17483 1 115.00000 209.200000
17484 17485 17486 1 119.8800511 375.723200
17484 17485 17494 1 119.8800511 375.723200
17486 17485 17494 1 120.0200517 532.790560
17485 17486 17487 1 121.3800518 83.010560
17485 17486 17488 1 120.0200517 532.790560
17487 17486 17488 1 121.3800518 83.010560
2100 17487 5001 1 109.50000 418.400000
2100 17487 17486 1 103.70004 836.800000
2100 17487 17496 1 109.50000 418.400000
5001 17487 17486 1 103.70004 836.800000
5001 17487 17496 1 109.50000 418.400000
17486 17487 17496 1 103.70004 1034.033760
17486 17488 17489 1 119.8800511 375.723200
17486 17488 17490 1 120.0200517 532.790560
17489 17488 17490 1 119.8800511 375.723200
17488 17490 17491 1 119.8800511 375.723200
17488 17490 17492 1 120.0200517 532.790560
17491 17490 17492 1 119.8800511 375.723200
17490 17492 17493 1 119.8800511 375.723200
17490 17492 17494 1 120.0200517 532.790560
17493 17492 17494 1 119.8800511 375.723200
17485 17494 17492 1 120.0200517 532.790560
17485 17494 17495 1 119.8800511 375.723200
17492 17494 17495 1 119.8800511 375.723200
17487 17496 17497 1 115.00000 209.200000
17498 17499 17500 1 119.8800511 375.723200
17498 17499 17508 1 119.8800511 375.723200
17500 17499 17508 1 120.0200517 532.790560
17499 17500 17501 1 121.3800518 83.010560
17499 17500 17502 1 120.0200517 532.790560
17501 17500 17502 1 121.3800518 83.010560
6892 17501 8331 1 109.50000 418.400000
6892 17501 17500 1 103.70004 836.800000
6892 17501 17510 1 109.50000 418.400000
8331 17501 17500 1 103.70004 836.800000
8331 17501 17510 1 109.50000 418.400000
17500 17501 17510 1 103.70004 1034.033760
17500 17502 17503 1 119.8800511 375.723200
17500 17502 17504 1 120.0200517 532.790560
17503 17502 17504 1 119.8800511 375.723200
17502 17504 17505 1 119.8800511 375.723200
17502 17504 17506 1 120.0200517 532.790560
17505 17504 17506 1 119.8800511 375.723200
17504 17506 17507 1 119.8800511 375.723200
17504 17506 17508 1 120.0200517 532.790560
17507 17506 17508 1 119.8800511 375.723200
17499 17508 17506 1 120.0200517 532.790560
17499 17508 17509 1 119.8800511 375.723200
17506 17508 17509 1 119.8800511 375.723200
17501 17510 17511 1 115.00000 209.200000
17512 17513 17514 1 119.8800511 375.723200
17512 17513 17522 1 119.8800511 375.723200
17514 17513 17522 1 120.0200517 532.790560
17513 17514 17515 1 121.3800518 83.010560
17513 17514 17516 1 120.0200517 532.790560
17515 17514 17516 1 121.3800518 83.010560
3109 17515 3161 1 109.50000 418.400000
3109 17515 17514 1 103.70004 836.800000
3109 17515 17524 1 109.50000 418.400000
3161 17515 17514 1 103.70004 836.800000
3161 17515 17524 1 109.50000 418.400000
17514 17515 17524 1 103.70004 1034.033760
17514 17516 17517 1 119.8800511 375.723200
17514 17516 17518 1 120.0200517 532.790560
17517 17516 17518 1 119.8800511 375.723200
17516 17518 17519 1 119.8800511 375.723200
17516 17518 17520 1 120.0200517 532.790560
17519 17518 17520 1 119.8800511 375.723200
17518 17520 17521 1 119.8800511 375.723200
17518 17520 17522 1 120.0200517 532.790560
17521 17520 17522 1 119.8800511 375.723200
17513 17522 17520 1 120.0200517 532.790560
17513 17522 17523 1 119.8800511 375.723200
17520 17522 17523 1 119.8800511 375.723200
17515 17524 17525 1 115.00000 209.200000
17526 17527 17528 1 119.8800511 375.723200
17526 17527 17536 1 119.8800511 375.723200
17528 17527 17536 1 120.0200517 532.790560
17527 17528 17529 1 121.3800518 83.010560
17527 17528 17530 1 120.0200517 532.790560
17529 17528 17530 1 121.3800518 83.010560
840 17529 8869 1 109.50000 418.400000
840 17529 17528 1 103.70004 836.800000
840 17529 17538 1 109.50000 418.400000
8869 17529 17528 1 103.70004 836.800000
8869 17529 17538 1 109.50000 418.400000
17528 17529 17538 1 103.70004 1034.033760
17528 17530 17531 1 119.8800511 375.723200
17528 17530 17532 1 120.0200517 532.790560
17531 17530 17532 1 119.8800511 375.723200
17530 17532 17533 1 119.8800511 375.723200
17530 17532 17534 1 120.0200517 532.790560
17533 17532 17534 1 119.8800511 375.723200
17532 17534 17535 1 119.8800511 375.723200
17532 17534 17536 1 120.0200517 532.790560
17535 17534 17536 1 119.8800511 375.723200
17527 17536 17534 1 120.0200517 532.790560
17527 17536 17537 1 119.8800511 375.723200
17534 17536 17537 1 119.8800511 375.723200
17529 17538 17539 1 115.00000 209.200000
17540 17541 17542 1 119.8800511 375.723200
17540 17541 17550 1 119.8800511 375.723200
17542 17541 17550 1 120.0200517 532.790560
17541 17542 17543 1 121.3800518 83.010560
17541 17542 17544 1 120.0200517 532.790560
17543 17542 17544 1 121.3800518 83.010560
1684 17543 5566 1 109.50000 418.400000
1684 17543 17542 1 103.70004 836.800000
1684 17543 17552 1 109.50000 418.400000
5566 17543 17542 1 103.70004 836.800000
5566 17543 17552 1 109.50000 418.400000
17542 17543 17552 1 103.70004 1034.033760
17542 17544 17545 1 119.8800511 375.723200
17542 17544 17546 1 120.0200517 532.790560
17545 17544 17546 1 119.8800511 375.723200
17544 17546 17547 1 119.8800511 375.723200
17544 17546 17548 1 120.0200517 532.790560
17547 17546 17548 1 119.8800511 375.723200
17546 17548 17549 1 119.8800511 375.723200
17546 17548 17550 1 120.0200517 532.790560
17549 17548 17550 1 119.8800511 375.723200
17541 17550 17548 1 120.0200517 532.790560
17541 17550 17551 1 119.8800511 375.723200
17548 17550 17551 1 119.8800511 375.723200
17543 17552 17553 1 115.00000 209.200000
17554 17555 17556 1 119.8800511 375.723200
17554 17555 17564 1 119.8800511 375.723200
17556 17555 17564 1 120.0200517 532.790560
17555 17556 17557 1 121.3800518 83.010560
17555 17556 17558 1 120.0200517 532.790560
17557 17556 17558 1 121.3800518 83.010560
4087 17557 10165 1 109.50000 418.400000
4087 17557 17556 1 103.70004 836.800000
4087 17557 17566 1 109.50000 418.400000
10165 17557 17556 1 103.70004 836.800000
10165 17557 17566 1 109.50000 418.400000
17556 17557 17566 1 103.70004 1034.033760
17556 17558 17559 1 119.8800511 375.723200
17556 17558 17560 1 120.0200517 532.790560
17559 17558 17560 1 119.8800511 375.723200
17558 17560 17561 1 119.8800511 375.723200
17558 17560 17562 1 120.0200517 532.790560
17561 17560 17562 1 119.8800511 375.723200
17560 17562 17563 1 119.8800511 375.723200
17560 17562 17564 1 120.0200517 532.790560
17563 17562 17564 1 119.8800511 375.723200
17555 17564 17562 1 120.0200517 532.790560
17555 17564 17565 1 119.8800511 375.723200
17562 17564 17565 1 119.8800511 375.723200
17557 17566 17567 1 115.00000 209.200000
17568 17569 17570 1 119.8800511 375.723200
17568 17569 17578 1 119.8800511 375.723200
17570 17569 17578 1 120.0200517 532.790560
17569 17570 17571 1 121.3800518 83.010560
17569 17570 17572 1 120.0200517 532.790560
17571 17570 17572 1 121.3800518 83.010560
3540 17571 9193 1 109.50000 418.400000
3540 17571 17570 1 103.70004 836.800000
3540 17571 17580 1 109.50000 418.400000
9193 17571 17570 1 103.70004 836.800000
9193 17571 17580 1 109.50000 418.400000
17570 17571 17580 1 103.70004 1034.033760
17570 17572 17573 1 119.8800511 375.723200
17570 17572 17574 1 120.0200517 532.790560
17573 17572 17574 1 119.8800511 375.723200
17572 17574 17575 1 119.8800511 375.723200
17572 17574 17576 1 120.0200517 532.790560
17575 17574 17576 1 119.8800511 375.723200
17574 17576 17577 1 119.8800511 375.723200
17574 17576 17578 1 120.0200517 532.790560
17577 17576 17578 1 119.8800511 375.723200
17569 17578 17576 1 120.0200517 532.790560
17569 17578 17579 1 119.8800511 375.723200
17576 17578 17579 1 119.8800511 375.723200
17571 17580 17581 1 115.00000 209.200000
17582 17583 17584 1 119.8800511 375.723200
17582 17583 17592 1 119.8800511 375.723200
17584 17583 17592 1 120.0200517 532.790560
17583 17584 17585 1 121.3800518 83.010560
17583 17584 17586 1 120.0200517 532.790560
17585 17584 17586 1 121.3800518 83.010560
145 17585 4849 1 109.50000 418.400000
145 17585 17584 1 103.70004 836.800000
145 17585 17594 1 109.50000 418.400000
4849 17585 17584 1 103.70004 836.800000
4849 17585 17594 1 109.50000 418.400000
17584 17585 17594 1 103.70004 1034.033760
17584 17586 17587 1 119.8800511 375.723200
17584 17586 17588 1 120.0200517 532.790560
17587 17586 17588 1 119.8800511 375.723200
17586 17588 17589 1 119.8800511 375.723200
17586 17588 17590 1 120.0200517 532.790560
17589 17588 17590 1 119.8800511 375.723200
17588 17590 17591 1 119.8800511 375.723200
17588 17590 17592 1 120.0200517 532.790560
17591 17590 17592 1 119.8800511 375.723200
17583 17592 17590 1 120.0200517 532.790560
17583 17592 17593 1 119.8800511 375.723200
17590 17592 17593 1 119.8800511 375.723200
17585 17594 17595 1 115.00000 209.200000
17596 17597 17598 1 119.8800511 375.723200
17596 17597 17606 1 119.8800511 375.723200
17598 17597 17606 1 120.0200517 532.790560
17597 17598 17599 1 121.3800518 83.010560
17597 17598 17600 1 120.0200517 532.790560
17599 17598 17600 1 121.3800518 83.010560
8841 17599 10957 1 109.50000 418.400000
8841 17599 17598 1 103.70004 836.800000
8841 17599 17608 1 109.50000 418.400000
10957 17599 17598 1 103.70004 836.800000
10957 17599 17608 1 109.50000 418.400000
17598 17599 17608 1 103.70004 1034.033760
17598 17600 17601 1 119.8800511 375.723200
17598 17600 17602 1 120.0200517 532.790560
17601 17600 17602 1 119.8800511 375.723200
17600 17602 17603 1 119.8800511 375.723200
17600 17602 17604 1 120.0200517 532.790560
17603 17602 17604 1 119.8800511 375.723200
17602 17604 17605 1 119.8800511 375.723200
17602 17604 17606 1 120.0200517 532.790560
17605 17604 17606 1 119.8800511 375.723200
17597 17606 17604 1 120.0200517 532.790560
17597 17606 17607 1 119.8800511 375.723200
17604 17606 17607 1 119.8800511 375.723200
17599 17608 17609 1 115.00000 209.200000
17610 17611 17612 1 119.8800511 375.723200
17610 17611 17620 1 119.8800511 375.723200
17612 17611 17620 1 120.0200517 532.790560
17611 17612 17613 1 121.3800518 83.010560
17611 17612 17614 1 120.0200517 532.790560
17613 17612 17614 1 121.3800518 83.010560
2298 17613 9090 1 109.50000 418.400000
2298 17613 17612 1 103.70004 836.800000
2298 17613 17622 1 109.50000 418.400000
9090 17613 17612 1 103.70004 836.800000
9090 17613 17622 1 109.50000 418.400000
17612 17613 17622 1 103.70004 1034.033760
17612 17614 17615 1 119.8800511 375.723200
17612 17614 17616 1 120.0200517 532.790560
17615 17614 17616 1 119.8800511 375.723200
17614 17616 17617 1 119.8800511 375.723200
17614 17616 17618 1 120.0200517 532.790560
17617 17616 17618 1 119.8800511 375.723200
17616 17618 17619 1 119.8800511 375.723200
17616 17618 17620 1 120.0200517 532.790560
17619 17618 17620 1 119.8800511 375.723200
17611 17620 17618 1 120.0200517 532.790560
17611 17620 17621 1 119.8800511 375.723200
17618 17620 17621 1 119.8800511 375.723200
17613 17622 17623 1 115.00000 209.200000
17624 17625 17626 1 119.8800511 375.723200
17624 17625 17634 1 119.8800511 375.723200
17626 17625 17634 1 120.0200517 532.790560
17625 17626 17627 1 121.3800518 83.010560
17625 17626 17628 1 120.0200517 532.790560
17627 17626 17628 1 121.3800518 83.010560
1179 17627 1180 1 109.50000 418.400000
1179 17627 17626 1 103.70004 836.800000
1179 17627 17636 1 109.50000 418.400000
1180 17627 17626 1 103.70004 836.800000
1180 17627 17636 1 109.50000 418.400000
17626 17627 17636 1 103.70004 1034.033760
17626 17628 17629 1 119.8800511 375.723200
17626 17628 17630 1 120.0200517 532.790560
17629 17628 17630 1 119.8800511 375.723200
17628 17630 17631 1 119.8800511 375.723200
17628 17630 17632 1 120.0200517 532.790560
17631 17630 17632 1 119.8800511 375.723200
17630 17632 17633 1 119.8800511 375.723200
17630 17632 17634 1 120.0200517 532.790560
17633 17632 17634 1 119.8800511 375.723200
17625 17634 17632 1 120.0200517 532.790560
17625 17634 17635 1 119.8800511 375.723200
17632 17634 17635 1 119.8800511 375.723200
17627 17636 17637 1 115.00000 209.200000
17638 17639 17640 1 119.8800511 375.723200
17638 17639 17648 1 119.8800511 375.723200
17640 17639 17648 1 120.0200517 532.790560
17639 17640 17641 1 121.3800518 83.010560
17639 17640 17642 1 120.0200517 532.790560
17641 17640 17642 1 121.3800518 83.010560
2498 17641 9568 1 109.50000 418.400000
2498 17641 17640 1 103.70004 836.800000
2498 17641 17650 1 109.50000 418.400000
9568 17641 17640 1 103.70004 836.800000
9568 17641 17650 1 109.50000 418.400000
17640 17641 17650 1 103.70004 1034.033760
17640 17642 17643 1 119.8800511 375.723200
17640 17642 17644 1 120.0200517 532.790560
17643 17642 17644 1 119.8800511 375.723200
17642 17644 17645 1 119.8800511 375.723200
17642 17644 17646 1 120.0200517 532.790560
17645 17644 17646 1 119.8800511 375.723200
17644 17646 17647 1 119.8800511 375.723200
17644 17646 17648 1 120.0200517 532.790560
17647 17646 17648 1 119.8800511 375.723200
17639 17648 17646 1 120.0200517 532.790560
17639 17648 17649 1 119.8800511 375.723200
17646 17648 17649 1 119.8800511 375.723200
17641 17650 17651 1 115.00000 209.200000
17652 17653 17654 1 119.8800511 375.723200
17652 17653 17662 1 119.8800511 375.723200
17654 17653 17662 1 120.0200517 532.790560
17653 17654 17655 1 121.3800518 83.010560
17653 17654 17656 1 120.0200517 532.790560
17655 17654 17656 1 121.3800518 83.010560
2839 17655 9765 1 109.50000 418.400000
2839 17655 17654 1 103.70004 836.800000
2839 17655 17664 1 109.50000 418.400000
9765 17655 17654 1 103.70004 836.800000
9765 17655 17664 1 109.50000 418.400000
17654 17655 17664 1 103.70004 1034.033760
17654 17656 17657 1 119.8800511 375.723200
17654 17656 17658 1 120.0200517 532.790560
17657 17656 17658 1 119.8800511 375.723200
17656 17658 17659 1 119.8800511 375.723200
17656 17658 17660 1 120.0200517 532.790560
17659 17658 17660 1 119.8800511 375.723200
17658 17660 17661 1 119.8800511 375.723200
17658 17660 17662 1 120.0200517 532.790560
17661 17660 17662 1 119.8800511 375.723200
17653 17662 17660 1 120.0200517 532.790560
17653 17662 17663 1 119.8800511 375.723200
17660 17662 17663 1 119.8800511 375.723200
17655 17664 17665 1 115.00000 209.200000
17666 17667 17668 1 119.8800511 375.723200
17666 17667 17676 1 119.8800511 375.723200
17668 17667 17676 1 120.0200517 532.790560
17667 17668 17669 1 121.3800518 83.010560
17667 17668 17670 1 120.0200517 532.790560
17669 17668 17670 1 121.3800518 83.010560
964 17669 965 1 109.50000 418.400000
964 17669 17668 1 103.70004 836.800000
964 17669 17678 1 109.50000 418.400000
965 17669 17668 1 103.70004 836.800000
965 17669 17678 1 109.50000 418.400000
17668 17669 17678 1 103.70004 1034.033760
17668 17670 17671 1 119.8800511 375.723200
17668 17670 17672 1 120.0200517 532.790560
17671 17670 17672 1 119.8800511 375.723200
17670 17672 17673 1 119.8800511 375.723200
17670 17672 17674 1 120.0200517 532.790560
17673 17672 17674 1 119.8800511 375.723200
17672 17674 17675 1 119.8800511 375.723200
17672 17674 17676 1 120.0200517 532.790560
17675 17674 17676 1 119.8800511 375.723200
17667 17676 17674 1 120.0200517 532.790560
17667 17676 17677 1 119.8800511 375.723200
17674 17676 17677 1 119.8800511 375.723200
17669 17678 17679 1 115.00000 209.200000
17680 17681 17682 1 119.8800511 375.723200
17680 17681 17690 1 119.8800511 375.723200
17682 17681 17690 1 120.0200517 532.790560
17681 17682 17683 1 121.3800518 83.010560
17681 17682 17684 1 120.0200517 532.790560
17683 17682 17684 1 121.3800518 83.010560
1986 17683 2066 1 109.50000 418.400000
1986 17683 17682 1 103.70004 836.800000
1986 17683 17692 1 109.50000 418.400000
2066 17683 17682 1 103.70004 836.800000
2066 17683 17692 1 109.50000 418.400000
17682 17683 17692 1 103.70004 1034.033760
17682 17684 17685 1 119.8800511 375.723200
17682 17684 17686 1 120.0200517 532.790560
17685 17684 17686 1 119.8800511 375.723200
17684 17686 17687 1 119.8800511 375.723200
17684 17686 17688 1 120.0200517 532.790560
17687 17686 17688 1 119.8800511 375.723200
17686 17688 17689 1 119.8800511 375.723200
17686 17688 17690 1 120.0200517 532.790560
17689 17688 17690 1 119.8800511 375.723200
17681 17690 17688 1 120.0200517 532.790560
17681 17690 17691 1 119.8800511 375.723200
17688 17690 17691 1 119.8800511 375.723200
17683 17692 17693 1 115.00000 209.200000
17694 17695 17696 1 119.8800511 375.723200
17694 17695 17704 1 119.8800511 375.723200
17696 17695 17704 1 120.0200517 532.790560
17695 17696 17697 1 121.3800518 83.010560
17695 17696 17698 1 120.0200517 532.790560
17697 17696 17698 1 121.3800518 83.010560
4208 17697 4209 1 109.50000 418.400000
4208 17697 17696 1 103.70004 836.800000
4208 17697 17706 1 109.50000 418.400000
4209 17697 17696 1 103.70004 836.800000
4209 17697 17706 1 109.50000 418.400000
17696 17697 17706 1 103.70004 1034.033760
17696 17698 17699 1 119.8800511 375.723200
17696 17698 17700 1 120.0200517 532.790560
17699 17698 17700 1 119.8800511 375.723200
17698 17700 17701 1 119.8800511 375.723200
17698 17700 17702 1 120.0200517 532.790560
17701 17700 17702 1 119.8800511 375.723200
17700 17702 17703 1 119.8800511 375.723200
17700 17702 17704 1 120.0200517 532.790560
17703 17702 17704 1 119.8800511 375.723200
17695 17704 17702 1 120.0200517 532.790560
17695 17704 17705 1 119.8800511 375.723200
17702 17704 17705 1 119.8800511 375.723200
17697 17706 17707 1 115.00000 209.200000
17708 17709 17710 1 119.8800511 375.723200
17708 17709 17718 1 119.8800511 375.723200
17710 17709 17718 1 120.0200517 532.790560
17709 17710 17711 1 121.3800518 83.010560
17709 17710 17712 1 120.0200517 532.790560
17711 17710 17712 1 121.3800518 83.010560
4050 17711 10033 1 109.50000 418.400000
4050 17711 17710 1 103.70004 836.800000
4050 17711 17720 1 109.50000 418.400000
10033 17711 17710 1 103.70004 836.800000
10033 17711 17720 1 109.50000 418.400000
17710 17711 17720 1 103.70004 1034.033760
17710 17712 17713 1 119.8800511 375.723200
17710 17712 17714 1 120.0200517 532.790560
17713 17712 17714 1 119.8800511 375.723200
17712 17714 17715 1 119.8800511 375.723200
17712 17714 17716 1 120.0200517 532.790560
17715 17714 17716 1 119.8800511 375.723200
17714 17716 17717 1 119.8800511 375.723200
17714 17716 17718 1 120.0200517 532.790560
17717 17716 17718 1 119.8800511 375.723200
17709 17718 17716 1 120.0200517 532.790560
17709 17718 17719 1 119.8800511 375.723200
17716 17718 17719 1 119.8800511 375.723200
17711 17720 17721 1 115.00000 209.200000
17722 17723 17724 1 119.8800511 375.723200
17722 17723 17732 1 119.8800511 375.723200
17724 17723 17732 1 120.0200517 532.790560
17723 17724 17725 1 121.3800518 83.010560
17723 17724 17726 1 120.0200517 532.790560
17725 17724 17726 1 121.3800518 83.010560
4150 17725 8405 1 109.50000 418.400000
4150 17725 17724 1 103.70004 836.800000
4150 17725 17734 1 109.50000 418.400000
8405 17725 17724 1 103.70004 836.800000
8405 17725 17734 1 109.50000 418.400000
17724 17725 17734 1 103.70004 1034.033760
17724 17726 17727 1 119.8800511 375.723200
17724 17726 17728 1 120.0200517 532.790560
17727 17726 17728 1 119.8800511 375.723200
17726 17728 17729 1 119.8800511 375.723200
17726 17728 17730 1 120.0200517 532.790560
17729 17728 17730 1 119.8800511 375.723200
17728 17730 17731 1 119.8800511 375.723200
17728 17730 17732 1 120.0200517 532.790560
17731 17730 17732 1 119.8800511 375.723200
17723 17732 17730 1 120.0200517 532.790560
17723 17732 17733 1 119.8800511 375.723200
17730 17732 17733 1 119.8800511 375.723200
17725 17734 17735 1 115.00000 209.200000
17736 17737 17738 1 119.8800511 375.723200
17736 17737 17746 1 119.8800511 375.723200
17738 17737 17746 1 120.0200517 532.790560
17737 17738 17739 1 121.3800518 83.010560
17737 17738 17740 1 120.0200517 532.790560
17739 17738 17740 1 121.3800518 83.010560
2500 17739 2501 1 109.50000 418.400000
2500 17739 17738 1 103.70004 836.800000
2500 17739 17748 1 109.50000 418.400000
2501 17739 17738 1 103.70004 836.800000
2501 17739 17748 1 109.50000 418.400000
17738 17739 17748 1 103.70004 1034.033760
17738 17740 17741 1 119.8800511 375.723200
17738 17740 17742 1 120.0200517 532.790560
17741 17740 17742 1 119.8800511 375.723200
17740 17742 17743 1 119.8800511 375.723200
17740 17742 17744 1 120.0200517 532.790560
17743 17742 17744 1 119.8800511 375.723200
17742 17744 17745 1 119.8800511 375.723200
17742 17744 17746 1 120.0200517 532.790560
17745 17744 17746 1 119.8800511 375.723200
17737 17746 17744 1 120.0200517 532.790560
17737 17746 17747 1 119.8800511 375.723200
17744 17746 17747 1 119.8800511 375.723200
17739 17748 17749 1 115.00000 209.200000
17750 17751 17752 1 119.8800511 375.723200
17750 17751 17760 1 119.8800511 375.723200
17752 17751 17760 1 120.0200517 532.790560
17751 17752 17753 1 121.3800518 83.010560
17751 17752 17754 1 120.0200517 532.790560
17753 17752 17754 1 121.3800518 83.010560
6251 17753 10923 1 109.50000 418.400000
6251 17753 17752 1 103.70004 836.800000
6251 17753 17762 1 109.50000 418.400000
10923 17753 17752 1 103.70004 836.800000
10923 17753 17762 1 109.50000 418.400000
17752 17753 17762 1 103.70004 1034.033760
17752 17754 17755 1 119.8800511 375.723200
17752 17754 17756 1 120.0200517 532.790560
17755 17754 17756 1 119.8800511 375.723200
17754 17756 17757 1 119.8800511 375.723200
17754 17756 17758 1 120.0200517 532.790560
17757 17756 17758 1 119.8800511 375.723200
17756 17758 17759 1 119.8800511 375.723200
17756 17758 17760 1 120.0200517 532.790560
17759 17758 17760 1 119.8800511 375.723200
17751 17760 17758 1 120.0200517 532.790560
17751 17760 17761 1 119.8800511 375.723200
17758 17760 17761 1 119.8800511 375.723200
17753 17762 17763 1 115.00000 209.200000
17764 17765 17766 1 119.8800511 375.723200
17764 17765 17774 1 119.8800511 375.723200
17766 17765 17774 1 120.0200517 532.790560
17765 17766 17767 1 121.3800518 83.010560
17765 17766 17768 1 120.0200517 532.790560
17767 17766 17768 1 121.3800518 83.010560
652 17767 3221 1 109.50000 418.400000
652 17767 17766 1 103.70004 836.800000
652 17767 17776 1 109.50000 418.400000
3221 17767 17766 1 103.70004 836.800000
3221 17767 17776 1 109.50000 418.400000
17766 17767 17776 1 103.70004 1034.033760
17766 17768 17769 1 119.8800511 375.723200
17766 17768 17770 1 120.0200517 532.790560
17769 17768 17770 1 119.8800511 375.723200
17768 17770 17771 1 119.8800511 375.723200
17768 17770 17772 1 120.0200517 532.790560
17771 17770 17772 1 119.8800511 375.723200
17770 17772 17773 1 119.8800511 375.723200
17770 17772 17774 1 120.0200517 532.790560
17773 17772 17774 1 119.8800511 375.723200
17765 17774 17772 1 120.0200517 532.790560
17765 17774 17775 1 119.8800511 375.723200
17772 17774 17775 1 119.8800511 375.723200
17767 17776 17777 1 115.00000 209.200000
17778 17779 17780 1 119.8800511 375.723200
17778 17779 17788 1 119.8800511 375.723200
17780 17779 17788 1 120.0200517 532.790560
17779 17780 17781 1 121.3800518 83.010560
17779 17780 17782 1 120.0200517 532.790560
17781 17780 17782 1 121.3800518 83.010560
4051 17781 10314 1 109.50000 418.400000
4051 17781 17780 1 103.70004 836.800000
4051 17781 17790 1 109.50000 418.400000
10314 17781 17780 1 103.70004 836.800000
10314 17781 17790 1 109.50000 418.400000
17780 17781 17790 1 103.70004 1034.033760
17780 17782 17783 1 119.8800511 375.723200
17780 17782 17784 1 120.0200517 532.790560
17783 17782 17784 1 119.8800511 375.723200
17782 17784 17785 1 119.8800511 375.723200
17782 17784 17786 1 120.0200517 532.790560
17785 17784 17786 1 119.8800511 375.723200
17784 17786 17787 1 119.8800511 375.723200
17784 17786 17788 1 120.0200517 532.790560
17787 17786 17788 1 119.8800511 375.723200
17779 17788 17786 1 120.0200517 532.790560
17779 17788 17789 1 119.8800511 375.723200
17786 17788 17789 1 119.8800511 375.723200
17781 17790 17791 1 115.00000 209.200000
17792 17793 17794 1 119.8800511 375.723200
17792 17793 17802 1 119.8800511 375.723200
17794 17793 17802 1 120.0200517 532.790560
17793 17794 17795 1 121.3800518 83.010560
17793 17794 17796 1 120.0200517 532.790560
17795 17794 17796 1 121.3800518 83.010560
3543 17795 11092 1 109.50000 418.400000
3543 17795 17794 1 103.70004 836.800000
3543 17795 17804 1 109.50000 418.400000
11092 17795 17794 1 103.70004 836.800000
11092 17795 17804 1 109.50000 418.400000
17794 17795 17804 1 103.70004 1034.033760
17794 17796 17797 1 119.8800511 375.723200
17794 17796 17798 1 120.0200517 532.790560
17797 17796 17798 1 119.8800511 375.723200
17796 17798 17799 1 119.8800511 375.723200
17796 17798 17800 1 120.0200517 532.790560
17799 17798 17800 1 119.8800511 375.723200
17798 17800 17801 1 119.8800511 375.723200
17798 17800 17802 1 120.0200517 532.790560
17801 17800 17802 1 119.8800511 375.723200
17793 17802 17800 1 120.0200517 532.790560
17793 17802 17803 1 119.8800511 375.723200
17800 17802 17803 1 119.8800511 375.723200
17795 17804 17805 1 115.00000 209.200000
17806 17807 17808 1 119.8800511 375.723200
17806 17807 17816 1 119.8800511 375.723200
17808 17807 17816 1 120.0200517 532.790560
17807 17808 17809 1 121.3800518 83.010560
17807 17808 17810 1 120.0200517 532.790560
17809 17808 17810 1 121.3800518 83.010560
5834 17809 7510 1 109.50000 418.400000
5834 17809 17808 1 103.70004 836.800000
5834 17809 17818 1 109.50000 418.400000
7510 17809 17808 1 103.70004 836.800000
7510 17809 17818 1 109.50000 418.400000
17808 17809 17818 1 103.70004 1034.033760
17808 17810 17811 1 119.8800511 375.723200
17808 17810 17812 1 120.0200517 532.790560
17811 17810 17812 1 119.8800511 375.723200
17810 17812 17813 1 119.8800511 375.723200
17810 17812 17814 1 120.0200517 532.790560
17813 17812 17814 1 119.8800511 375.723200
17812 17814 17815 1 119.8800511 375.723200
17812 17814 17816 1 120.0200517 532.790560
17815 17814 17816 1 119.8800511 375.723200
17807 17816 17814 1 120.0200517 532.790560
17807 17816 17817 1 119.8800511 375.723200
17814 17816 17817 1 119.8800511 375.723200
17809 17818 17819 1 115.00000 209.200000
17820 17821 17822 1 119.8800511 375.723200
17820 17821 17830 1 119.8800511 375.723200
17822 17821 17830 1 120.0200517 532.790560
17821 17822 17823 1 121.3800518 83.010560
17821 17822 17824 1 120.0200517 532.790560
17823 17822 17824 1 121.3800518 83.010560
8866 17823 8867 1 109.50000 418.400000
8866 17823 17822 1 103.70004 836.800000
8866 17823 17832 1 109.50000 418.400000
8867 17823 17822 1 103.70004 836.800000
8867 17823 17832 1 109.50000 418.400000
17822 17823 17832 1 103.70004 1034.033760
17822 17824 17825 1 119.8800511 375.723200
17822 17824 17826 1 120.0200517 532.790560
17825 17824 17826 1 119.8800511 375.723200
17824 17826 17827 1 119.8800511 375.723200
17824 17826 17828 1 120.0200517 532.790560
17827 17826 17828 1 119.8800511 375.723200
17826 17828 17829 1 119.8800511 375.723200
17826 17828 17830 1 120.0200517 532.790560
17829 17828 17830 1 119.8800511 375.723200
17821 17830 17828 1 120.0200517 532.790560
17821 17830 17831 1 119.8800511 375.723200
17828 17830 17831 1 119.8800511 375.723200
17823 17832 17833 1 115.00000 209.200000
17834 17835 17836 1 119.8800511 375.723200
17834 17835 17844 1 119.8800511 375.723200
17836 17835 17844 1 120.0200517 532.790560
17835 17836 17837 1 121.3800518 83.010560
17835 17836 17838 1 120.0200517 532.790560
17837 17836 17838 1 121.3800518 83.010560
5298 17837 5299 1 109.50000 418.400000
5298 17837 17836 1 103.70004 836.800000
5298 17837 17846 1 109.50000 418.400000
5299 17837 17836 1 103.70004 836.800000
5299 17837 17846 1 109.50000 418.400000
17836 17837 17846 1 103.70004 1034.033760
17836 17838 17839 1 119.8800511 375.723200
17836 17838 17840 1 120.0200517 532.790560
17839 17838 17840 1 119.8800511 375.723200
17838 17840 17841 1 119.8800511 375.723200
17838 17840 17842 1 120.0200517 532.790560
17841 17840 17842 1 119.8800511 375.723200
17840 17842 17843 1 119.8800511 375.723200
17840 17842 17844 1 120.0200517 532.790560
17843 17842 17844 1 119.8800511 375.723200
17835 17844 17842 1 120.0200517 532.790560
17835 17844 17845 1 119.8800511 375.723200
17842 17844 17845 1 119.8800511 375.723200
17837 17846 17847 1 115.00000 209.200000
17848 17849 17850 1 119.8800511 375.723200
17848 17849 17858 1 119.8800511 375.723200
17850 17849 17858 1 120.0200517 532.790560
17849 17850 17851 1 121.3800518 83.010560
17849 17850 17852 1 120.0200517 532.790560
17851 17850 17852 1 121.3800518 83.010560
8045 17851 8851 1 109.50000 418.400000
8045 17851 17850 1 103.70004 836.800000
8045 17851 17860 1 109.50000 418.400000
8851 17851 17850 1 103.70004 836.800000
8851 17851 17860 1 109.50000 418.400000
17850 17851 17860 1 103.70004 1034.033760
17850 17852 17853 1 119.8800511 375.723200
17850 17852 17854 1 120.0200517 532.790560
17853 17852 17854 1 119.8800511 375.723200
17852 17854 17855 1 119.8800511 375.723200
17852 17854 17856 1 120.0200517 532.790560
17855 17854 17856 1 119.8800511 375.723200
17854 17856 17857 1 119.8800511 375.723200
17854 17856 17858 1 120.0200517 532.790560
17857 17856 17858 1 119.8800511 375.723200
17849 17858 17856 1 120.0200517 532.790560
17849 17858 17859 1 119.8800511 375.723200
17856 17858 17859 1 119.8800511 375.723200
17851 17860 17861 1 115.00000 209.200000
17862 17863 17864 1 119.8800511 375.723200
17862 17863 17872 1 119.8800511 375.723200
17864 17863 17872 1 120.0200517 532.790560
17863 17864 17865 1 121.3800518 83.010560
17863 17864 17866 1 120.0200517 532.790560
17865 17864 17866 1 121.3800518 83.010560
4281 17865 8621 1 109.50000 418.400000
4281 17865 17864 1 103.70004 836.800000
4281 17865 17874 1 109.50000 418.400000
8621 17865 17864 1 103.70004 836.800000
8621 17865 17874 1 109.50000 418.400000
17864 17865 17874 1 103.70004 1034.033760
17864 17866 17867 1 119.8800511 375.723200
17864 17866 17868 1 120.0200517 532.790560
17867 17866 17868 1 119.8800511 375.723200
17866 17868 17869 1 119.8800511 375.723200
17866 17868 17870 1 120.0200517 532.790560
17869 17868 17870 1 119.8800511 375.723200
17868 17870 17871 1 119.8800511 375.723200
17868 17870 17872 1 120.0200517 532.790560
17871 17870 17872 1 119.8800511 375.723200
17863 17872 17870 1 120.0200517 532.790560
17863 17872 17873 1 119.8800511 375.723200
17870 17872 17873 1 119.8800511 375.723200
17865 17874 17875 1 115.00000 209.200000
17876 17877 17878 1 119.8800511 375.723200
17876 17877 17886 1 119.8800511 375.723200
17878 17877 17886 1 120.0200517 532.790560
17877 17878 17879 1 121.3800518 83.010560
17877 17878 17880 1 120.0200517 532.790560
17879 17878 17880 1 121.3800518 83.010560
8276 17879 10397 1 109.50000 418.400000
8276 17879 17878 1 103.70004 836.800000
8276 17879 17888 1 109.50000 418.400000
10397 17879 17878 1 103.70004 836.800000
10397 17879 17888 1 109.50000 418.400000
17878 17879 17888 1 103.70004 1034.033760
17878 17880 17881 1 119.8800511 375.723200
17878 17880 17882 1 120.0200517 532.790560
17881 17880 17882 1 119.8800511 375.723200
17880 17882 17883 1 119.8800511 375.723200
17880 17882 17884 1 120.0200517 532.790560
17883 17882 17884 1 119.8800511 375.723200
17882 17884 17885 1 119.8800511 375.723200
17882 17884 17886 1 120.0200517 532.790560
17885 17884 17886 1 119.8800511 375.723200
17877 17886 17884 1 120.0200517 532.790560
17877 17886 17887 1 119.8800511 375.723200
17884 17886 17887 1 119.8800511 375.723200
17879 17888 17889 1 115.00000 209.200000
17890 17891 17892 1 119.8800511 375.723200
17890 17891 17900 1 119.8800511 375.723200
17892 17891 17900 1 120.0200517 532.790560
17891 17892 17893 1 121.3800518 83.010560
17891 17892 17894 1 120.0200517 532.790560
17893 17892 17894 1 121.3800518 83.010560
3347 17893 10567 1 109.50000 418.400000
3347 17893 17892 1 103.70004 836.800000
3347 17893 17902 1 109.50000 418.400000
10567 17893 17892 1 103.70004 836.800000
10567 17893 17902 1 109.50000 418.400000
17892 17893 17902 1 103.70004 1034.033760
17892 17894 17895 1 119.8800511 375.723200
17892 17894 17896 1 120.0200517 532.790560
17895 17894 17896 1 119.8800511 375.723200
17894 17896 17897 1 119.8800511 375.723200
17894 17896 17898 1 120.0200517 532.790560
17897 17896 17898 1 119.8800511 375.723200
17896 17898 17899 1 119.8800511 375.723200
17896 17898 17900 1 120.0200517 532.790560
17899 17898 17900 1 119.8800511 375.723200
17891 17900 17898 1 120.0200517 532.790560
17891 17900 17901 1 119.8800511 375.723200
17898 17900 17901 1 119.8800511 375.723200
17893 17902 17903 1 115.00000 209.200000
17904 17905 17906 1 119.8800511 375.723200
17904 17905 17914 1 119.8800511 375.723200
17906 17905 17914 1 120.0200517 532.790560
17905 17906 17907 1 121.3800518 83.010560
17905 17906 17908 1 120.0200517 532.790560
17907 17906 17908 1 121.3800518 83.010560
3047 17907 3048 1 109.50000 418.400000
3047 17907 17906 1 103.70004 836.800000
3047 17907 17916 1 109.50000 418.400000
3048 17907 17906 1 103.70004 836.800000
3048 17907 17916 1 109.50000 418.400000
17906 17907 17916 1 103.70004 1034.033760
17906 17908 17909 1 119.8800511 375.723200
17906 17908 17910 1 120.0200517 532.790560
17909 17908 17910 1 119.8800511 375.723200
17908 17910 17911 1 119.8800511 375.723200
17908 17910 17912 1 120.0200517 532.790560
17911 17910 17912 1 119.8800511 375.723200
17910 17912 17913 1 119.8800511 375.723200
17910 17912 17914 1 120.0200517 532.790560
17913 17912 17914 1 119.8800511 375.723200
17905 17914 17912 1 120.0200517 532.790560
17905 17914 17915 1 119.8800511 375.723200
17912 17914 17915 1 119.8800511 375.723200
17907 17916 17917 1 115.00000 209.200000
17918 17919 17920 1 119.8800511 375.723200
17918 17919 17928 1 119.8800511 375.723200
17920 17919 17928 1 120.0200517 532.790560
17919 17920 17921 1 121.3800518 83.010560
17919 17920 17922 1 120.0200517 532.790560
17921 17920 17922 1 121.3800518 83.010560
7528 17921 7529 1 109.50000 418.400000
7528 17921 17920 1 103.70004 836.800000
7528 17921 17930 1 109.50000 418.400000
7529 17921 17920 1 103.70004 836.800000
7529 17921 17930 1 109.50000 418.400000
17920 17921 17930 1 103.70004 1034.033760
17920 17922 17923 1 119.8800511 375.723200
17920 17922 17924 1 120.0200517 532.790560
17923 17922 17924 1 119.8800511 375.723200
17922 17924 17925 1 119.8800511 375.723200
17922 17924 17926 1 120.0200517 532.790560
17925 17924 17926 1 119.8800511 375.723200
17924 17926 17927 1 119.8800511 375.723200
17924 17926 17928 1 120.0200517 532.790560
17927 17926 17928 1 119.8800511 375.723200
17919 17928 17926 1 120.0200517 532.790560
17919 17928 17929 1 119.8800511 375.723200
17926 17928 17929 1 119.8800511 375.723200
17921 17930 17931 1 115.00000 209.200000
17932 17933 17934 1 119.8800511 375.723200
17932 17933 17942 1 119.8800511 375.723200
17934 17933 17942 1 120.0200517 532.790560
17933 17934 17935 1 121.3800518 83.010560
17933 17934 17936 1 120.0200517 532.790560
17935 17934 17936 1 121.3800518 83.010560
9263 17935 9264 1 109.50000 418.400000
9263 17935 17934 1 103.70004 836.800000
9263 17935 17944 1 109.50000 418.400000
9264 17935 17934 1 103.70004 836.800000
9264 17935 17944 1 109.50000 418.400000
17934 17935 17944 1 103.70004 1034.033760
17934 17936 17937 1 119.8800511 375.723200
17934 17936 17938 1 120.0200517 532.790560
17937 17936 17938 1 119.8800511 375.723200
17936 17938 17939 1 119.8800511 375.723200
17936 17938 17940 1 120.0200517 532.790560
17939 17938 17940 1 119.8800511 375.723200
17938 17940 17941 1 119.8800511 375.723200
17938 17940 17942 1 120.0200517 532.790560
17941 17940 17942 1 119.8800511 375.723200
17933 17942 17940 1 120.0200517 532.790560
17933 17942 17943 1 119.8800511 375.723200
17940 17942 17943 1 119.8800511 375.723200
17935 17944 17945 1 115.00000 209.200000
17946 17947 17948 1 119.8800511 375.723200
17946 17947 17956 1 119.8800511 375.723200
17948 17947 17956 1 120.0200517 532.790560
17947 17948 17949 1 121.3800518 83.010560
17947 17948 17950 1 120.0200517 532.790560
17949 17948 17950 1 121.3800518 83.010560
7286 17949 8822 1 109.50000 418.400000
7286 17949 17948 1 103.70004 836.800000
7286 17949 17958 1 109.50000 418.400000
8822 17949 17948 1 103.70004 836.800000
8822 17949 17958 1 109.50000 418.400000
17948 17949 17958 1 103.70004 1034.033760
17948 17950 17951 1 119.8800511 375.723200
17948 17950 17952 1 120.0200517 532.790560
17951 17950 17952 1 119.8800511 375.723200
17950 17952 17953 1 119.8800511 375.723200
17950 17952 17954 1 120.0200517 532.790560
17953 17952 17954 1 119.8800511 375.723200
17952 17954 17955 1 119.8800511 375.723200
17952 17954 17956 1 120.0200517 532.790560
17955 17954 17956 1 119.8800511 375.723200
17947 17956 17954 1 120.0200517 532.790560
17947 17956 17957 1 119.8800511 375.723200
17954 17956 17957 1 119.8800511 375.723200
17949 17958 17959 1 115.00000 209.200000
17960 17961 17962 1 119.8800511 375.723200
17960 17961 17970 1 119.8800511 375.723200
17962 17961 17970 1 120.0200517 532.790560
17961 17962 17963 1 121.3800518 83.010560
17961 17962 17964 1 120.0200517 532.790560
17963 17962 17964 1 121.3800518 83.010560
4479 17963 4481 1 109.50000 418.400000
4479 17963 17962 1 103.70004 836.800000
4479 17963 17972 1 109.50000 418.400000
4481 17963 17962 1 103.70004 836.800000
4481 17963 17972 1 109.50000 418.400000
17962 17963 17972 1 103.70004 1034.033760
17962 17964 17965 1 119.8800511 375.723200
17962 17964 17966 1 120.0200517 532.790560
17965 17964 17966 1 119.8800511 375.723200
17964 17966 17967 1 119.8800511 375.723200
17964 17966 17968 1 120.0200517 532.790560
17967 17966 17968 1 119.8800511 375.723200
17966 17968 17969 1 119.8800511 375.723200
17966 17968 17970 1 120.0200517 532.790560
17969 17968 17970 1 119.8800511 375.723200
17961 17970 17968 1 120.0200517 532.790560
17961 17970 17971 1 119.8800511 375.723200
17968 17970 17971 1 119.8800511 375.723200
17963 17972 17973 1 115.00000 209.200000
17974 17975 17976 1 119.8800511 375.723200
17974 17975 17984 1 119.8800511 375.723200
17976 17975 17984 1 120.0200517 532.790560
17975 17976 17977 1 121.3800518 83.010560
17975 17976 17978 1 120.0200517 532.790560
17977 17976 17978 1 121.3800518 83.010560
9583 17977 10463 1 109.50000 418.400000
9583 17977 17976 1 103.70004 836.800000
9583 17977 17986 1 109.50000 418.400000
10463 17977 17976 1 103.70004 836.800000
10463 17977 17986 1 109.50000 418.400000
17976 17977 17986 1 103.70004 1034.033760
17976 17978 17979 1 119.8800511 375.723200
17976 17978 17980 1 120.0200517 532.790560
17979 17978 17980 1 119.8800511 375.723200
17978 17980 17981 1 119.8800511 375.723200
17978 17980 17982 1 120.0200517 532.790560
17981 17980 17982 1 119.8800511 375.723200
17980 17982 17983 1 119.8800511 375.723200
17980 17982 17984 1 120.0200517 532.790560
17983 17982 17984 1 119.8800511 375.723200
17975 17984 17982 1 120.0200517 532.790560
17975 17984 17985 1 119.8800511 375.723200
17982 17984 17985 1 119.8800511 375.723200
17977 17986 17987 1 115.00000 209.200000
17988 17989 17990 1 119.8800511 375.723200
17988 17989 17998 1 119.8800511 375.723200
17990 17989 17998 1 120.0200517 532.790560
17989 17990 17991 1 121.3800518 83.010560
17989 17990 17992 1 120.0200517 532.790560
17991 17990 17992 1 121.3800518 83.010560
5030 17991 5268 1 109.50000 418.400000
5030 17991 17990 1 103.70004 836.800000
5030 17991 18000 1 109.50000 418.400000
5268 17991 17990 1 103.70004 836.800000
5268 17991 18000 1 109.50000 418.400000
17990 17991 18000 1 103.70004 1034.033760
17990 17992 17993 1 119.8800511 375.723200
17990 17992 17994 1 120.0200517 532.790560
17993 17992 17994 1 119.8800511 375.723200
17992 17994 17995 1 119.8800511 375.723200
17992 17994 17996 1 120.0200517 532.790560
17995 17994 17996 1 119.8800511 375.723200
17994 17996 17997 1 119.8800511 375.723200
17994 17996 17998 1 120.0200517 532.790560
17997 17996 17998 1 119.8800511 375.723200
17989 17998 17996 1 120.0200517 532.790560
17989 17998 17999 1 119.8800511 375.723200
17996 17998 17999 1 119.8800511 375.723200
17991 18000 18001 1 115.00000 209.200000
18002 18003 18004 1 119.8800511 375.723200
18002 18003 18012 1 119.8800511 375.723200
18004 18003 18012 1 120.0200517 532.790560
18003 18004 18005 1 121.3800518 83.010560
18003 18004 18006 1 120.0200517 532.790560
18005 18004 18006 1 121.3800518 83.010560
5173 18005 9032 1 109.50000 418.400000
5173 18005 18004 1 103.70004 836.800000
5173 18005 18014 1 109.50000 418.400000
9032 18005 18004 1 103.70004 836.800000
9032 18005 18014 1 109.50000 418.400000
18004 18005 18014 1 103.70004 1034.033760
18004 18006 18007 1 119.8800511 375.723200
18004 18006 18008 1 120.0200517 532.790560
18007 18006 18008 1 119.8800511 375.723200
18006 18008 18009 1 119.8800511 375.723200
18006 18008 18010 1 120.0200517 532.790560
18009 18008 18010 1 119.8800511 375.723200
18008 18010 18011 1 119.8800511 375.723200
18008 18010 18012 1 120.0200517 532.790560
18011 18010 18012 1 119.8800511 375.723200
18003 18012 18010 1 120.0200517 532.790560
18003 18012 18013 1 119.8800511 375.723200
18010 18012 18013 1 119.8800511 375.723200
18005 18014 18015 1 115.00000 209.200000
18016 18017 18018 1 119.8800511 375.723200
18016 18017 18026 1 119.8800511 375.723200
18018 18017 18026 1 120.0200517 532.790560
18017 18018 18019 1 121.3800518 83.010560
18017 18018 18020 1 120.0200517 532.790560
18019 18018 18020 1 121.3800518 83.010560
1413 18019 1414 1 109.50000 418.400000
1413 18019 18018 1 103.70004 836.800000
1413 18019 18028 1 109.50000 418.400000
1414 18019 18018 1 103.70004 836.800000
1414 18019 18028 1 109.50000 418.400000
18018 18019 18028 1 103.70004 1034.033760
18018 18020 18021 1 119.8800511 375.723200
18018 18020 18022 1 120.0200517 532.790560
18021 18020 18022 1 119.8800511 375.723200
18020 18022 18023 1 119.8800511 375.723200
18020 18022 18024 1 120.0200517 532.790560
18023 18022 18024 1 119.8800511 375.723200
18022 18024 18025 1 119.8800511 375.723200
18022 18024 18026 1 120.0200517 532.790560
18025 18024 18026 1 119.8800511 375.723200
18017 18026 18024 1 120.0200517 532.790560
18017 18026 18027 1 119.8800511 375.723200
18024 18026 18027 1 119.8800511 375.723200
18019 18028 18029 1 115.00000 209.200000
18030 18031 18032 1 119.8800511 375.723200
18030 18031 18040 1 119.8800511 375.723200
18032 18031 18040 1 120.0200517 532.790560
18031 18032 18033 1 121.3800518 83.010560
18031 18032 18034 1 120.0200517 532.790560
18033 18032 18034 1 121.3800518 83.010560
1742 18033 4270 1 109.50000 418.400000
1742 18033 18032 1 103.70004 836.800000
1742 18033 18042 1 109.50000 418.400000
4270 18033 18032 1 103.70004 836.800000
4270 18033 18042 1 109.50000 418.400000
18032 18033 18042 1 103.70004 1034.033760
18032 18034 18035 1 119.8800511 375.723200
18032 18034 18036 1 120.0200517 532.790560
18035 18034 18036 1 119.8800511 375.723200
18034 18036 18037 1 119.8800511 375.723200
18034 18036 18038 1 120.0200517 532.790560
18037 18036 18038 1 119.8800511 375.723200
18036 18038 18039 1 119.8800511 375.723200
18036 18038 18040 1 120.0200517 532.790560
18039 18038 18040 1 119.8800511 375.723200
18031 18040 18038 1 120.0200517 532.790560
18031 18040 18041 1 119.8800511 375.723200
18038 18040 18041 1 119.8800511 375.723200
18033 18042 18043 1 115.00000 209.200000
18044 18045 18046 1 119.8800511 375.723200
18044 18045 18054 1 119.8800511 375.723200
18046 18045 18054 1 120.0200517 532.790560
18045 18046 18047 1 121.3800518 83.010560
18045 18046 18048 1 120.0200517 532.790560
18047 18046 18048 1 121.3800518 83.010560
1207 18047 3332 1 109.50000 418.400000
1207 18047 18046 1 103.70004 836.800000
1207 18047 18056 1 109.50000 418.400000
3332 18047 18046 1 103.70004 836.800000
3332 18047 18056 1 109.50000 418.400000
18046 18047 18056 1 103.70004 1034.033760
18046 18048 18049 1 119.8800511 375.723200
18046 18048 18050 1 120.0200517 532.790560
18049 18048 18050 1 119.8800511 375.723200
18048 18050 18051 1 119.8800511 375.723200
18048 18050 18052 1 120.0200517 532.790560
18051 18050 18052 1 119.8800511 375.723200
18050 18052 18053 1 119.8800511 375.723200
18050 18052 18054 1 120.0200517 532.790560
18053 18052 18054 1 119.8800511 375.723200
18045 18054 18052 1 120.0200517 532.790560
18045 18054 18055 1 119.8800511 375.723200
18052 18054 18055 1 119.8800511 375.723200
18047 18056 18057 1 115.00000 209.200000
18058 18059 18060 1 119.8800511 375.723200
18058 18059 18068 1 119.8800511 375.723200
18060 18059 18068 1 120.0200517 532.790560
18059 18060 18061 1 121.3800518 83.010560
18059 18060 18062 1 120.0200517 532.790560
18061 18060 18062 1 121.3800518 83.010560
439 18061 440 1 109.50000 418.400000
439 18061 18060 1 103.70004 836.800000
439 18061 18070 1 109.50000 418.400000
440 18061 18060 1 103.70004 836.800000
440 18061 18070 1 109.50000 418.400000
18060 18061 18070 1 103.70004 1034.033760
18060 18062 18063 1 119.8800511 375.723200
18060 18062 18064 1 120.0200517 532.790560
18063 18062 18064 1 119.8800511 375.723200
18062 18064 18065 1 119.8800511 375.723200
18062 18064 18066 1 120.0200517 532.790560
18065 18064 18066 1 119.8800511 375.723200
18064 18066 18067 1 119.8800511 375.723200
18064 18066 18068 1 120.0200517 532.790560
18067 18066 18068 1 119.8800511 375.723200
18059 18068 18066 1 120.0200517 532.790560
18059 18068 18069 1 119.8800511 375.723200
18066 18068 18069 1 119.8800511 375.723200
18061 18070 18071 1 115.00000 209.200000
18072 18073 18074 1 119.8800511 375.723200
18072 18073 18082 1 119.8800511 375.723200
18074 18073 18082 1 120.0200517 532.790560
18073 18074 18075 1 121.3800518 83.010560
18073 18074 18076 1 120.0200517 532.790560
18075 18074 18076 1 121.3800518 83.010560
3956 18075 4014 1 109.50000 418.400000
3956 18075 18074 1 103.70004 836.800000
3956 18075 18084 1 109.50000 418.400000
4014 18075 18074 1 103.70004 836.800000
4014 18075 18084 1 109.50000 418.400000
18074 18075 18084 1 103.70004 1034.033760
18074 18076 18077 1 119.8800511 375.723200
18074 18076 18078 1 120.0200517 532.790560
18077 18076 18078 1 119.8800511 375.723200
18076 18078 18079 1 119.8800511 375.723200
18076 18078 18080 1 120.0200517 532.790560
18079 18078 18080 1 119.8800511 375.723200
18078 18080 18081 1 119.8800511 375.723200
18078 18080 18082 1 120.0200517 532.790560
18081 18080 18082 1 119.8800511 375.723200
18073 18082 18080 1 120.0200517 532.790560
18073 18082 18083 1 119.8800511 375.723200
18080 18082 18083 1 119.8800511 375.723200
18075 18084 18085 1 115.00000 209.200000
18086 18087 18088 1 119.8800511 375.723200
18086 18087 18096 1 119.8800511 375.723200
18088 18087 18096 1 120.0200517 532.790560
18087 18088 18089 1 121.3800518 83.010560
18087 18088 18090 1 120.0200517 532.790560
18089 18088 18090 1 121.3800518 83.010560
449 18089 450 1 109.50000 418.400000
449 18089 18088 1 103.70004 836.800000
449 18089 18098 1 109.50000 418.400000
450 18089 18088 1 103.70004 836.800000
450 18089 18098 1 109.50000 418.400000
18088 18089 18098 1 103.70004 1034.033760
18088 18090 18091 1 119.8800511 375.723200
18088 18090 18092 1 120.0200517 532.790560
18091 18090 18092 1 119.8800511 375.723200
18090 18092 18093 1 119.8800511 375.723200
18090 18092 18094 1 120.0200517 532.790560
18093 18092 18094 1 119.8800511 375.723200
18092 18094 18095 1 119.8800511 375.723200
18092 18094 18096 1 120.0200517 532.790560
18095 18094 18096 1 119.8800511 375.723200
18087 18096 18094 1 120.0200517 532.790560
18087 18096 18097 1 119.8800511 375.723200
18094 18096 18097 1 119.8800511 375.723200
18089 18098 18099 1 115.00000 209.200000
18100 18101 18102 1 119.8800511 375.723200
18100 18101 18110 1 119.8800511 375.723200
18102 18101 18110 1 120.0200517 532.790560
18101 18102 18103 1 121.3800518 83.010560
18101 18102 18104 1 120.0200517 532.790560
18103 18102 18104 1 121.3800518 83.010560
5054 18103 8928 1 109.50000 418.400000
5054 18103 18102 1 103.70004 836.800000
5054 18103 18112 1 109.50000 418.400000
8928 18103 18102 1 103.70004 836.800000
8928 18103 18112 1 109.50000 418.400000
18102 18103 18112 1 103.70004 1034.033760
18102 18104 18105 1 119.8800511 375.723200
18102 18104 18106 1 120.0200517 532.790560
18105 18104 18106 1 119.8800511 375.723200
18104 18106 18107 1 119.8800511 375.723200
18104 18106 18108 1 120.0200517 532.790560
18107 18106 18108 1 119.8800511 375.723200
18106 18108 18109 1 119.8800511 375.723200
18106 18108 18110 1 120.0200517 532.790560
18109 18108 18110 1 119.8800511 375.723200
18101 18110 18108 1 120.0200517 532.790560
18101 18110 18111 1 119.8800511 375.723200
18108 18110 18111 1 119.8800511 375.723200
18103 18112 18113 1 115.00000 209.200000
18114 18115 18116 1 119.8800511 375.723200
18114 18115 18124 1 119.8800511 375.723200
18116 18115 18124 1 120.0200517 532.790560
18115 18116 18117 1 121.3800518 83.010560
18115 18116 18118 1 120.0200517 532.790560
18117 18116 18118 1 121.3800518 83.010560
1495 18117 4981 1 109.50000 418.400000
1495 18117 18116 1 103.70004 836.800000
1495 18117 18126 1 109.50000 418.400000
4981 18117 18116 1 103.70004 836.800000
4981 18117 18126 1 109.50000 418.400000
18116 18117 18126 1 103.70004 1034.033760
18116 18118 18119 1 119.8800511 375.723200
18116 18118 18120 1 120.0200517 532.790560
18119 18118 18120 1 119.8800511 375.723200
18118 18120 18121 1 119.8800511 375.723200
18118 18120 18122 1 120.0200517 532.790560
18121 18120 18122 1 119.8800511 375.723200
18120 18122 18123 1 119.8800511 375.723200
18120 18122 18124 1 120.0200517 532.790560
18123 18122 18124 1 119.8800511 375.723200
18115 18124 18122 1 120.0200517 532.790560
18115 18124 18125 1 119.8800511 375.723200
18122 18124 18125 1 119.8800511 375.723200
18117 18126 18127 1 115.00000 209.200000
18128 18129 18130 1 119.8800511 375.723200
18128 18129 18138 1 119.8800511 375.723200
18130 18129 18138 1 120.0200517 532.790560
18129 18130 18131 1 121.3800518 83.010560
18129 18130 18132 1 120.0200517 532.790560
18131 18130 18132 1 121.3800518 83.010560
192 18131 1858 1 109.50000 418.400000
192 18131 18130 1 103.70004 836.800000
192 18131 18140 1 109.50000 418.400000
1858 18131 18130 1 103.70004 836.800000
1858 18131 18140 1 109.50000 418.400000
18130 18131 18140 1 103.70004 1034.033760
18130 18132 18133 1 119.8800511 375.723200
18130 18132 18134 1 120.0200517 532.790560
18133 18132 18134 1 119.8800511 375.723200
18132 18134 18135 1 119.8800511 375.723200
18132 18134 18136 1 120.0200517 532.790560
18135 18134 18136 1 119.8800511 375.723200
18134 18136 18137 1 119.8800511 375.723200
18134 18136 18138 1 120.0200517 532.790560
18137 18136 18138 1 119.8800511 375.723200
18129 18138 18136 1 120.0200517 532.790560
18129 18138 18139 1 119.8800511 375.723200
18136 18138 18139 1 119.8800511 375.723200
18131 18140 18141 1 115.00000 209.200000
18142 18143 18144 1 119.8800511 375.723200
18142 18143 18152 1 119.8800511 375.723200
18144 18143 18152 1 120.0200517 532.790560
18143 18144 18145 1 121.3800518 83.010560
18143 18144 18146 1 120.0200517 532.790560
18145 18144 18146 1 121.3800518 83.010560
2443 18145 5172 1 109.50000 418.400000
2443 18145 18144 1 103.70004 836.800000
2443 18145 18154 1 109.50000 418.400000
5172 18145 18144 1 103.70004 836.800000
5172 18145 18154 1 109.50000 418.400000
18144 18145 18154 1 103.70004 1034.033760
18144 18146 18147 1 119.8800511 375.723200
18144 18146 18148 1 120.0200517 532.790560
18147 18146 18148 1 119.8800511 375.723200
18146 18148 18149 1 119.8800511 375.723200
18146 18148 18150 1 120.0200517 532.790560
18149 18148 18150 1 119.8800511 375.723200
18148 18150 18151 1 119.8800511 375.723200
18148 18150 18152 1 120.0200517 532.790560
18151 18150 18152 1 119.8800511 375.723200
18143 18152 18150 1 120.0200517 532.790560
18143 18152 18153 1 119.8800511 375.723200
18150 18152 18153 1 119.8800511 375.723200
18145 18154 18155 1 115.00000 209.200000
18156 18157 18158 1 119.8800511 375.723200
18156 18157 18166 1 119.8800511 375.723200
18158 18157 18166 1 120.0200517 532.790560
18157 18158 18159 1 121.3800518 83.010560
18157 18158 18160 1 120.0200517 532.790560
18159 18158 18160 1 121.3800518 83.010560
2148 18159 7897 1 109.50000 418.400000
2148 18159 18158 1 103.70004 836.800000
2148 18159 18168 1 109.50000 418.400000
7897 18159 18158 1 103.70004 836.800000
7897 18159 18168 1 109.50000 418.400000
18158 18159 18168 1 103.70004 1034.033760
18158 18160 18161 1 119.8800511 375.723200
18158 18160 18162 1 120.0200517 532.790560
18161 18160 18162 1 119.8800511 375.723200
18160 18162 18163 1 119.8800511 375.723200
18160 18162 18164 1 120.0200517 532.790560
18163 18162 18164 1 119.8800511 375.723200
18162 18164 18165 1 119.8800511 375.723200
18162 18164 18166 1 120.0200517 532.790560
18165 18164 18166 1 119.8800511 375.723200
18157 18166 18164 1 120.0200517 532.790560
18157 18166 18167 1 119.8800511 375.723200
18164 18166 18167 1 119.8800511 375.723200
18159 18168 18169 1 115.00000 209.200000
18170 18171 18172 1 119.8800511 375.723200
18170 18171 18180 1 119.8800511 375.723200
18172 18171 18180 1 120.0200517 532.790560
18171 18172 18173 1 121.3800518 83.010560
18171 18172 18174 1 120.0200517 532.790560
18173 18172 18174 1 121.3800518 83.010560
241 18173 9643 1 109.50000 418.400000
241 18173 18172 1 103.70004 836.800000
241 18173 18182 1 109.50000 418.400000
9643 18173 18172 1 103.70004 836.800000
9643 18173 18182 1 109.50000 418.400000
18172 18173 18182 1 103.70004 1034.033760
18172 18174 18175 1 119.8800511 375.723200
18172 18174 18176 1 120.0200517 532.790560
18175 18174 18176 1 119.8800511 375.723200
18174 18176 18177 1 119.8800511 375.723200
18174 18176 18178 1 120.0200517 532.790560
18177 18176 18178 1 119.8800511 375.723200
18176 18178 18179 1 119.8800511 375.723200
18176 18178 18180 1 120.0200517 532.790560
18179 18178 18180 1 119.8800511 375.723200
18171 18180 18178 1 120.0200517 532.790560
18171 18180 18181 1 119.8800511 375.723200
18178 18180 18181 1 119.8800511 375.723200
18173 18182 18183 1 115.00000 209.200000
18184 18185 18186 1 119.8800511 375.723200
18184 18185 18194 1 119.8800511 375.723200
18186 18185 18194 1 120.0200517 532.790560
18185 18186 18187 1 121.3800518 83.010560
18185 18186 18188 1 120.0200517 532.790560
18187 18186 18188 1 121.3800518 83.010560
5540 18187 5541 1 109.50000 418.400000
5540 18187 18186 1 103.70004 836.800000
5540 18187 18196 1 109.50000 418.400000
5541 18187 18186 1 103.70004 836.800000
5541 18187 18196 1 109.50000 418.400000
18186 18187 18196 1 103.70004 1034.033760
18186 18188 18189 1 119.8800511 375.723200
18186 18188 18190 1 120.0200517 532.790560
18189 18188 18190 1 119.8800511 375.723200
18188 18190 18191 1 119.8800511 375.723200
18188 18190 18192 1 120.0200517 532.790560
18191 18190 18192 1 119.8800511 375.723200
18190 18192 18193 1 119.8800511 375.723200
18190 18192 18194 1 120.0200517 532.790560
18193 18192 18194 1 119.8800511 375.723200
18185 18194 18192 1 120.0200517 532.790560
18185 18194 18195 1 119.8800511 375.723200
18192 18194 18195 1 119.8800511 375.723200
18187 18196 18197 1 115.00000 209.200000
18198 18199 18200 1 119.8800511 375.723200
18198 18199 18208 1 119.8800511 375.723200
18200 18199 18208 1 120.0200517 532.790560
18199 18200 18201 1 121.3800518 83.010560
18199 18200 18202 1 120.0200517 532.790560
18201 18200 18202 1 121.3800518 83.010560
1772 18201 7302 1 109.50000 418.400000
1772 18201 18200 1 103.70004 836.800000
1772 18201 18210 1 109.50000 418.400000
7302 18201 18200 1 103.70004 836.800000
7302 18201 18210 1 109.50000 418.400000
18200 18201 18210 1 103.70004 1034.033760
18200 18202 18203 1 119.8800511 375.723200
18200 18202 18204 1 120.0200517 532.790560
18203 18202 18204 1 119.8800511 375.723200
18202 18204 18205 1 119.8800511 375.723200
18202 18204 18206 1 120.0200517 532.790560
18205 18204 18206 1 119.8800511 375.723200
18204 18206 18207 1 119.8800511 375.723200
18204 18206 18208 1 120.0200517 532.790560
18207 18206 18208 1 119.8800511 375.723200
18199 18208 18206 1 120.0200517 532.790560
18199 18208 18209 1 119.8800511 375.723200
18206 18208 18209 1 119.8800511 375.723200
18201 18210 18211 1 115.00000 209.200000
18212 18213 18214 1 119.8800511 375.723200
18212 18213 18222 1 119.8800511 375.723200
18214 18213 18222 1 120.0200517 532.790560
18213 18214 18215 1 121.3800518 83.010560
18213 18214 18216 1 120.0200517 532.790560
18215 18214 18216 1 121.3800518 83.010560
1807 18215 1808 1 109.50000 418.400000
1807 18215 18214 1 103.70004 836.800000
1807 18215 18224 1 109.50000 418.400000
1808 18215 18214 1 103.70004 836.800000
1808 18215 18224 1 109.50000 418.400000
18214 18215 18224 1 103.70004 1034.033760
18214 18216 18217 1 119.8800511 375.723200
18214 18216 18218 1 120.0200517 532.790560
18217 18216 18218 1 119.8800511 375.723200
18216 18218 18219 1 119.8800511 375.723200
18216 18218 18220 1 120.0200517 532.790560
18219 18218 18220 1 119.8800511 375.723200
18218 18220 18221 1 119.8800511 375.723200
18218 18220 18222 1 120.0200517 532.790560
18221 18220 18222 1 119.8800511 375.723200
18213 18222 18220 1 120.0200517 532.790560
18213 18222 18223 1 119.8800511 375.723200
18220 18222 18223 1 119.8800511 375.723200
18215 18224 18225 1 115.00000 209.200000
18226 18227 18228 1 119.8800511 375.723200
18226 18227 18236 1 119.8800511 375.723200
18228 18227 18236 1 120.0200517 532.790560
18227 18228 18229 1 121.3800518 83.010560
18227 18228 18230 1 120.0200517 532.790560
18229 18228 18230 1 121.3800518 83.010560
9189 18229 10440 1 109.50000 418.400000
9189 18229 18228 1 103.70004 836.800000
9189 18229 18238 1 109.50000 418.400000
10440 18229 18228 1 103.70004 836.800000
10440 18229 18238 1 109.50000 418.400000
18228 18229 18238 1 103.70004 1034.033760
18228 18230 18231 1 119.8800511 375.723200
18228 18230 18232 1 120.0200517 532.790560
18231 18230 18232 1 119.8800511 375.723200
18230 18232 18233 1 119.8800511 375.723200
18230 18232 18234 1 120.0200517 532.790560
18233 18232 18234 1 119.8800511 375.723200
18232 18234 18235 1 119.8800511 375.723200
18232 18234 18236 1 120.0200517 532.790560
18235 18234 18236 1 119.8800511 375.723200
18227 18236 18234 1 120.0200517 532.790560
18227 18236 18237 1 119.8800511 375.723200
18234 18236 18237 1 119.8800511 375.723200
18229 18238 18239 1 115.00000 209.200000
18240 18241 18242 1 119.8800511 375.723200
18240 18241 18250 1 119.8800511 375.723200
18242 18241 18250 1 120.0200517 532.790560
18241 18242 18243 1 121.3800518 83.010560
18241 18242 18244 1 120.0200517 532.790560
18243 18242 18244 1 121.3800518 83.010560
2246 18243 7770 1 109.50000 418.400000
2246 18243 18242 1 103.70004 836.800000
2246 18243 18252 1 109.50000 418.400000
7770 18243 18242 1 103.70004 836.800000
7770 18243 18252 1 109.50000 418.400000
18242 18243 18252 1 103.70004 1034.033760
18242 18244 18245 1 119.8800511 375.723200
18242 18244 18246 1 120.0200517 532.790560
18245 18244 18246 1 119.8800511 375.723200
18244 18246 18247 1 119.8800511 375.723200
18244 18246 18248 1 120.0200517 532.790560
18247 18246 18248 1 119.8800511 375.723200
18246 18248 18249 1 119.8800511 375.723200
18246 18248 18250 1 120.0200517 532.790560
18249 18248 18250 1 119.8800511 375.723200
18241 18250 18248 1 120.0200517 532.790560
18241 18250 18251 1 119.8800511 375.723200
18248 18250 18251 1 119.8800511 375.723200
18243 18252 18253 1 115.00000 209.200000
18254 18255 18256 1 119.8800511 375.723200
18254 18255 18264 1 119.8800511 375.723200
18256 18255 18264 1 120.0200517 532.790560
18255 18256 18257 1 121.3800518 83.010560
18255 18256 18258 1 120.0200517 532.790560
18257 18256 18258 1 121.3800518 83.010560
583 18257 584 1 109.50000 418.400000
583 18257 18256 1 103.70004 836.800000
583 18257 18266 1 109.50000 418.400000
584 18257 18256 1 103.70004 836.800000
584 18257 18266 1 109.50000 418.400000
18256 18257 18266 1 103.70004 1034.033760
18256 18258 18259 1 119.8800511 375.723200
18256 18258 18260 1 120.0200517 532.790560
18259 18258 18260 1 119.8800511 375.723200
18258 18260 18261 1 119.8800511 375.723200
18258 18260 18262 1 120.0200517 532.790560
18261 18260 18262 1 119.8800511 375.723200
18260 18262 18263 1 119.8800511 375.723200
18260 18262 18264 1 120.0200517 532.790560
18263 18262 18264 1 119.8800511 375.723200
18255 18264 18262 1 120.0200517 532.790560
18255 18264 18265 1 119.8800511 375.723200
18262 18264 18265 1 119.8800511 375.723200
18257 18266 18267 1 115.00000 209.200000
18268 18269 18270 1 119.8800511 375.723200
18268 18269 18278 1 119.8800511 375.723200
18270 18269 18278 1 120.0200517 532.790560
18269 18270 18271 1 121.3800518 83.010560
18269 18270 18272 1 120.0200517 532.790560
18271 18270 18272 1 121.3800518 83.010560
395 18271 396 1 109.50000 418.400000
395 18271 18270 1 103.70004 836.800000
395 18271 18280 1 109.50000 418.400000
396 18271 18270 1 103.70004 836.800000
396 18271 18280 1 109.50000 418.400000
18270 18271 18280 1 103.70004 1034.033760
18270 18272 18273 1 119.8800511 375.723200
18270 18272 18274 1 120.0200517 532.790560
18273 18272 18274 1 119.8800511 375.723200
18272 18274 18275 1 119.8800511 375.723200
18272 18274 18276 1 120.0200517 532.790560
18275 18274 18276 1 119.8800511 375.723200
18274 18276 18277 1 119.8800511 375.723200
18274 18276 18278 1 120.0200517 532.790560
18277 18276 18278 1 119.8800511 375.723200
18269 18278 18276 1 120.0200517 532.790560
18269 18278 18279 1 119.8800511 375.723200
18276 18278 18279 1 119.8800511 375.723200
18271 18280 18281 1 115.00000 209.200000
18282 18283 18284 1 119.8800511 375.723200
18282 18283 18292 1 119.8800511 375.723200
18284 18283 18292 1 120.0200517 532.790560
18283 18284 18285 1 121.3800518 83.010560
18283 18284 18286 1 120.0200517 532.790560
18285 18284 18286 1 121.3800518 83.010560
2540 18285 6901 1 109.50000 418.400000
2540 18285 18284 1 103.70004 836.800000
2540 18285 18294 1 109.50000 418.400000
6901 18285 18284 1 103.70004 836.800000
6901 18285 18294 1 109.50000 418.400000
18284 18285 18294 1 103.70004 1034.033760
18284 18286 18287 1 119.8800511 375.723200
18284 18286 18288 1 120.0200517 532.790560
18287 18286 18288 1 119.8800511 375.723200
18286 18288 18289 1 119.8800511 375.723200
18286 18288 18290 1 120.0200517 532.790560
18289 18288 18290 1 119.8800511 375.723200
18288 18290 18291 1 119.8800511 375.723200
18288 18290 18292 1 120.0200517 532.790560
18291 18290 18292 1 119.8800511 375.723200
18283 18292 18290 1 120.0200517 532.790560
18283 18292 18293 1 119.8800511 375.723200
18290 18292 18293 1 119.8800511 375.723200
18285 18294 18295 1 115.00000 209.200000
18296 18297 18298 1 119.8800511 375.723200
18296 18297 18306 1 119.8800511 375.723200
18298 18297 18306 1 120.0200517 532.790560
18297 18298 18299 1 121.3800518 83.010560
18297 18298 18300 1 120.0200517 532.790560
18299 18298 18300 1 121.3800518 83.010560
1343 18299 1344 1 109.50000 418.400000
1343 18299 18298 1 103.70004 836.800000
1343 18299 18308 1 109.50000 418.400000
1344 18299 18298 1 103.70004 836.800000
1344 18299 18308 1 109.50000 418.400000
18298 18299 18308 1 103.70004 1034.033760
18298 18300 18301 1 119.8800511 375.723200
18298 18300 18302 1 120.0200517 532.790560
18301 18300 18302 1 119.8800511 375.723200
18300 18302 18303 1 119.8800511 375.723200
18300 18302 18304 1 120.0200517 532.790560
18303 18302 18304 1 119.8800511 375.723200
18302 18304 18305 1 119.8800511 375.723200
18302 18304 18306 1 120.0200517 532.790560
18305 18304 18306 1 119.8800511 375.723200
18297 18306 18304 1 120.0200517 532.790560
18297 18306 18307 1 119.8800511 375.723200
18304 18306 18307 1 119.8800511 375.723200
18299 18308 18309 1 115.00000 209.200000
18310 18311 18312 1 119.8800511 375.723200
18310 18311 18320 1 119.8800511 375.723200
18312 18311 18320 1 120.0200517 532.790560
18311 18312 18313 1 121.3800518 83.010560
18311 18312 18314 1 120.0200517 532.790560
18313 18312 18314 1 121.3800518 83.010560
1623 18313 9645 1 109.50000 418.400000
1623 18313 11032 1 109.50000 418.400000
1623 18313 18312 1 103.70004 836.800000
9645 18313 11032 1 109.50000 418.400000
9645 18313 18312 1 103.70004 836.800000
11032 18313 18312 1 103.70004 836.800000
18312 18314 18315 1 119.8800511 375.723200
18312 18314 18316 1 120.0200517 532.790560
18315 18314 18316 1 119.8800511 375.723200
18314 18316 18317 1 119.8800511 375.723200
18314 18316 18318 1 120.0200517 532.790560
18317 18316 18318 1 119.8800511 375.723200
18316 18318 18319 1 119.8800511 375.723200
18316 18318 18320 1 120.0200517 532.790560
18319 18318 18320 1 119.8800511 375.723200
18311 18320 18318 1 120.0200517 532.790560
18311 18320 18321 1 119.8800511 375.723200
18318 18320 18321 1 119.8800511 375.723200
18322 18323 18324 1 119.8800511 375.723200
18322 18323 18332 1 119.8800511 375.723200
18324 18323 18332 1 120.0200517 532.790560
18323 18324 18325 1 121.3800518 83.010560
18323 18324 18326 1 120.0200517 532.790560
18325 18324 18326 1 121.3800518 83.010560
1372 18325 2041 1 109.50000 418.400000
1372 18325 2042 1 109.50000 418.400000
1372 18325 18324 1 103.70004 836.800000
2041 18325 2042 1 109.50000 418.400000
2041 18325 18324 1 103.70004 836.800000
2042 18325 18324 1 103.70004 836.800000
18324 18326 18327 1 119.8800511 375.723200
18324 18326 18328 1 120.0200517 532.790560
18327 18326 18328 1 119.8800511 375.723200
18326 18328 18329 1 119.8800511 375.723200
18326 18328 18330 1 120.0200517 532.790560
18329 18328 18330 1 119.8800511 375.723200
18328 18330 18331 1 119.8800511 375.723200
18328 18330 18332 1 120.0200517 532.790560
18331 18330 18332 1 119.8800511 375.723200
18323 18332 18330 1 120.0200517 532.790560
18323 18332 18333 1 119.8800511 375.723200
18330 18332 18333 1 119.8800511 375.723200
18334 18335 18336 1 119.8800511 375.723200
18334 18335 18344 1 119.8800511 375.723200
18336 18335 18344 1 120.0200517 532.790560
18335 18336 18337 1 121.3800518 83.010560
18335 18336 18338 1 120.0200517 532.790560
18337 18336 18338 1 121.3800518 83.010560
1449 18337 1450 1 109.50000 418.400000
1449 18337 11193 1 109.50000 418.400000
1449 18337 18336 1 103.70004 836.800000
1450 18337 11193 1 109.50000 418.400000
1450 18337 18336 1 103.70004 836.800000
11193 18337 18336 1 103.70004 836.800000
18336 18338 18339 1 119.8800511 375.723200
18336 18338 18340 1 120.0200517 532.790560
18339 18338 18340 1 119.8800511 375.723200
18338 18340 18341 1 119.8800511 375.723200
18338 18340 18342 1 120.0200517 532.790560
18341 18340 18342 1 119.8800511 375.723200
18340 18342 18343 1 119.8800511 375.723200
18340 18342 18344 1 120.0200517 532.790560
18343 18342 18344 1 119.8800511 375.723200
18335 18344 18342 1 120.0200517 532.790560
18335 18344 18345 1 119.8800511 375.723200
18342 18344 18345 1 119.8800511 375.723200
18346 18347 18348 1 119.8800511 375.723200
18346 18347 18356 1 119.8800511 375.723200
18348 18347 18356 1 120.0200517 532.790560
18347 18348 18349 1 121.3800518 83.010560
18347 18348 18350 1 120.0200517 532.790560
18349 18348 18350 1 121.3800518 83.010560
991 18349 5441 1 109.50000 418.400000
991 18349 8962 1 109.50000 418.400000
991 18349 18348 1 103.70004 836.800000
5441 18349 8962 1 109.50000 418.400000
5441 18349 18348 1 103.70004 836.800000
8962 18349 18348 1 103.70004 836.800000
18348 18350 18351 1 119.8800511 375.723200
18348 18350 18352 1 120.0200517 532.790560
18351 18350 18352 1 119.8800511 375.723200
18350 18352 18353 1 119.8800511 375.723200
18350 18352 18354 1 120.0200517 532.790560
18353 18352 18354 1 119.8800511 375.723200
18352 18354 18355 1 119.8800511 375.723200
18352 18354 18356 1 120.0200517 532.790560
18355 18354 18356 1 119.8800511 375.723200
18347 18356 18354 1 120.0200517 532.790560
18347 18356 18357 1 119.8800511 375.723200
18354 18356 18357 1 119.8800511 375.723200
18358 18359 18360 1 119.8800511 375.723200
18358 18359 18368 1 119.8800511 375.723200
18360 18359 18368 1 120.0200517 532.790560
18359 18360 18361 1 121.3800518 83.010560
18359 18360 18362 1 120.0200517 532.790560
18361 18360 18362 1 121.3800518 83.010560
4771 18361 4772 1 109.50000 418.400000
4771 18361 11147 1 109.50000 418.400000
4771 18361 18360 1 103.70004 836.800000
4772 18361 11147 1 109.50000 418.400000
4772 18361 18360 1 103.70004 836.800000
11147 18361 18360 1 103.70004 836.800000
18360 18362 18363 1 119.8800511 375.723200
18360 18362 18364 1 120.0200517 532.790560
18363 18362 18364 1 119.8800511 375.723200
18362 18364 18365 1 119.8800511 375.723200
18362 18364 18366 1 120.0200517 532.790560
18365 18364 18366 1 119.8800511 375.723200
18364 18366 18367 1 119.8800511 375.723200
18364 18366 18368 1 120.0200517 532.790560
18367 18366 18368 1 119.8800511 375.723200
18359 18368 18366 1 120.0200517 532.790560
18359 18368 18369 1 119.8800511 375.723200
18366 18368 18369 1 119.8800511 375.723200
18370 18371 18372 1 119.8800511 375.723200
18370 18371 18380 1 119.8800511 375.723200
18372 18371 18380 1 120.0200517 532.790560
18371 18372 18373 1 121.3800518 83.010560
18371 18372 18374 1 120.0200517 532.790560
18373 18372 18374 1 121.3800518 83.010560
783 18373 784 1 109.50000 418.400000
783 18373 785 1 109.50000 418.400000
783 18373 18372 1 103.70004 836.800000
784 18373 785 1 109.50000 418.400000
784 18373 18372 1 103.70004 836.800000
785 18373 18372 1 103.70004 836.800000
18372 18374 18375 1 119.8800511 375.723200
18372 18374 18376 1 120.0200517 532.790560
18375 18374 18376 1 119.8800511 375.723200
18374 18376 18377 1 119.8800511 375.723200
18374 18376 18378 1 120.0200517 532.790560
18377 18376 18378 1 119.8800511 375.723200
18376 18378 18379 1 119.8800511 375.723200
18376 18378 18380 1 120.0200517 532.790560
18379 18378 18380 1 119.8800511 375.723200
18371 18380 18378 1 120.0200517 532.790560
18371 18380 18381 1 119.8800511 375.723200
18378 18380 18381 1 119.8800511 375.723200
18382 18383 18384 1 119.8800511 375.723200
18382 18383 18392 1 119.8800511 375.723200
18384 18383 18392 1 120.0200517 532.790560
18383 18384 18385 1 121.3800518 83.010560
18383 18384 18386 1 120.0200517 532.790560
18385 18384 18386 1 121.3800518 83.010560
2746 18385 4785 1 109.50000 418.400000
2746 18385 7497 1 109.50000 418.400000
2746 18385 18384 1 103.70004 836.800000
4785 18385 7497 1 109.50000 418.400000
4785 18385 18384 1 103.70004 836.800000
7497 18385 18384 1 103.70004 836.800000
18384 18386 18387 1 119.8800511 375.723200
18384 18386 18388 1 120.0200517 532.790560
18387 18386 18388 1 119.8800511 375.723200
18386 18388 18389 1 119.8800511 375.723200
18386 18388 18390 1 120.0200517 532.790560
18389 18388 18390 1 119.8800511 375.723200
18388 18390 18391 1 119.8800511 375.723200
18388 18390 18392 1 120.0200517 532.790560
18391 18390 18392 1 119.8800511 375.723200
18383 18392 18390 1 120.0200517 532.790560
18383 18392 18393 1 119.8800511 375.723200
18390 18392 18393 1 119.8800511 375.723200
18394 18395 18396 1 119.8800511 375.723200
18394 18395 18404 1 119.8800511 375.723200
18396 18395 18404 1 120.0200517 532.790560
18395 18396 18397 1 121.3800518 83.010560
18395 18396 18398 1 120.0200517 532.790560
18397 18396 18398 1 121.3800518 83.010560
348 18397 349 1 109.50000 418.400000
348 18397 350 1 109.50000 418.400000
348 18397 18396 1 103.70004 836.800000
349 18397 350 1 109.50000 418.400000
349 18397 18396 1 103.70004 836.800000
350 18397 18396 1 103.70004 836.800000
18396 18398 18399 1 119.8800511 375.723200
18396 18398 18400 1 120.0200517 532.790560
18399 18398 18400 1 119.8800511 375.723200
18398 18400 18401 1 119.8800511 375.723200
18398 18400 18402 1 120.0200517 532.790560
18401 18400 18402 1 119.8800511 375.723200
18400 18402 18403 1 119.8800511 375.723200
18400 18402 18404 1 120.0200517 532.790560
18403 18402 18404 1 119.8800511 375.723200
18395 18404 18402 1 120.0200517 532.790560
18395 18404 18405 1 119.8800511 375.723200
18402 18404 18405 1 119.8800511 375.723200
18406 18407 18408 1 119.8800511 375.723200
18406 18407 18416 1 119.8800511 375.723200
18408 18407 18416 1 120.0200517 532.790560
18407 18408 18409 1 121.3800518 83.010560
18407 18408 18410 1 120.0200517 532.790560
18409 18408 18410 1 121.3800518 83.010560
221 18409 222 1 109.50000 418.400000
221 18409 223 1 109.50000 418.400000
221 18409 18408 1 103.70004 836.800000
222 18409 223 1 109.50000 418.400000
222 18409 18408 1 103.70004 836.800000
223 18409 18408 1 103.70004 836.800000
18408 18410 18411 1 119.8800511 375.723200
18408 18410 18412 1 120.0200517 532.790560
18411 18410 18412 1 119.8800511 375.723200
18410 18412 18413 1 119.8800511 375.723200
18410 18412 18414 1 120.0200517 532.790560
18413 18412 18414 1 119.8800511 375.723200
18412 18414 18415 1 119.8800511 375.723200
18412 18414 18416 1 120.0200517 532.790560
18415 18414 18416 1 119.8800511 375.723200
18407 18416 18414 1 120.0200517 532.790560
18407 18416 18417 1 119.8800511 375.723200
18414 18416 18417 1 119.8800511 375.723200
18418 18419 18420 1 119.8800511 375.723200
18418 18419 18428 1 119.8800511 375.723200
18420 18419 18428 1 120.0200517 532.790560
18419 18420 18421 1 121.3800518 83.010560
18419 18420 18422 1 120.0200517 532.790560
18421 18420 18422 1 121.3800518 83.010560
741 18421 2096 1 109.50000 418.400000
741 18421 2097 1 109.50000 418.400000
741 18421 18420 1 103.70004 836.800000
2096 18421 2097 1 109.50000 418.400000
2096 18421 18420 1 103.70004 836.800000
2097 18421 18420 1 103.70004 836.800000
18420 18422 18423 1 119.8800511 375.723200
18420 18422 18424 1 120.0200517 532.790560
18423 18422 18424 1 119.8800511 375.723200
18422 18424 18425 1 119.8800511 375.723200
18422 18424 18426 1 120.0200517 532.790560
18425 18424 18426 1 119.8800511 375.723200
18424 18426 18427 1 119.8800511 375.723200
18424 18426 18428 1 120.0200517 532.790560
18427 18426 18428 1 119.8800511 375.723200
18419 18428 18426 1 120.0200517 532.790560
18419 18428 18429 1 119.8800511 375.723200
18426 18428 18429 1 119.8800511 375.723200
18430 18431 18432 1 119.8800511 375.723200
18430 18431 18440 1 119.8800511 375.723200
18432 18431 18440 1 120.0200517 532.790560
18431 18432 18433 1 121.3800518 83.010560
18431 18432 18434 1 120.0200517 532.790560
18433 18432 18434 1 121.3800518 83.010560
4514 18433 4576 1 109.50000 418.400000
4514 18433 11180 1 109.50000 418.400000
4514 18433 18432 1 103.70004 836.800000
4576 18433 11180 1 109.50000 418.400000
4576 18433 18432 1 103.70004 836.800000
11180 18433 18432 1 103.70004 836.800000
18432 18434 18435 1 119.8800511 375.723200
18432 18434 18436 1 120.0200517 532.790560
18435 18434 18436 1 119.8800511 375.723200
18434 18436 18437 1 119.8800511 375.723200
18434 18436 18438 1 120.0200517 532.790560
18437 18436 18438 1 119.8800511 375.723200
18436 18438 18439 1 119.8800511 375.723200
18436 18438 18440 1 120.0200517 532.790560
18439 18438 18440 1 119.8800511 375.723200
18431 18440 18438 1 120.0200517 532.790560
18431 18440 18441 1 119.8800511 375.723200
18438 18440 18441 1 119.8800511 375.723200
18442 18443 18444 1 119.8800511 375.723200
18442 18443 18452 1 119.8800511 375.723200
18444 18443 18452 1 120.0200517 532.790560
18443 18444 18445 1 121.3800518 83.010560
18443 18444 18446 1 120.0200517 532.790560
18445 18444 18446 1 121.3800518 83.010560
3559 18445 10104 1 109.50000 418.400000
3559 18445 10270 1 109.50000 418.400000
3559 18445 18444 1 103.70004 836.800000
10104 18445 10270 1 109.50000 418.400000
10104 18445 18444 1 103.70004 836.800000
10270 18445 18444 1 103.70004 836.800000
18444 18446 18447 1 119.8800511 375.723200
18444 18446 18448 1 120.0200517 532.790560
18447 18446 18448 1 119.8800511 375.723200
18446 18448 18449 1 119.8800511 375.723200
18446 18448 18450 1 120.0200517 532.790560
18449 18448 18450 1 119.8800511 375.723200
18448 18450 18451 1 119.8800511 375.723200
18448 18450 18452 1 120.0200517 532.790560
18451 18450 18452 1 119.8800511 375.723200
18443 18452 18450 1 120.0200517 532.790560
18443 18452 18453 1 119.8800511 375.723200
18450 18452 18453 1 119.8800511 375.723200
18454 18455 18456 1 119.8800511 375.723200
18454 18455 18464 1 119.8800511 375.723200
18456 18455 18464 1 120.0200517 532.790560
18455 18456 18457 1 121.3800518 83.010560
18455 18456 18458 1 120.0200517 532.790560
18457 18456 18458 1 121.3800518 83.010560
5627 18457 7257 1 109.50000 418.400000
5627 18457 10991 1 109.50000 418.400000
5627 18457 18456 1 103.70004 836.800000
7257 18457 10991 1 109.50000 418.400000
7257 18457 18456 1 103.70004 836.800000
10991 18457 18456 1 103.70004 836.800000
18456 18458 18459 1 119.8800511 375.723200
18456 18458 18460 1 120.0200517 532.790560
18459 18458 18460 1 119.8800511 375.723200
18458 18460 18461 1 119.8800511 375.723200
18458 18460 18462 1 120.0200517 532.790560
18461 18460 18462 1 119.8800511 375.723200
18460 18462 18463 1 119.8800511 375.723200
18460 18462 18464 1 120.0200517 532.790560
18463 18462 18464 1 119.8800511 375.723200
18455 18464 18462 1 120.0200517 532.790560
18455 18464 18465 1 119.8800511 375.723200
18462 18464 18465 1 119.8800511 375.723200
18466 18467 18468 1 119.8800511 375.723200
18466 18467 18476 1 119.8800511 375.723200
18468 18467 18476 1 120.0200517 532.790560
18467 18468 18469 1 121.3800518 83.010560
18467 18468 18470 1 120.0200517 532.790560
18469 18468 18470 1 121.3800518 83.010560
4494 18469 8043 1 109.50000 418.400000
4494 18469 8044 1 109.50000 418.400000
4494 18469 18468 1 103.70004 836.800000
8043 18469 8044 1 109.50000 418.400000
8043 18469 18468 1 103.70004 836.800000
8044 18469 18468 1 103.70004 836.800000
18468 18470 18471 1 119.8800511 375.723200
18468 18470 18472 1 120.0200517 532.790560
18471 18470 18472 1 119.8800511 375.723200
18470 18472 18473 1 119.8800511 375.723200
18470 18472 18474 1 120.0200517 532.790560
18473 18472 18474 1 119.8800511 375.723200
18472 18474 18475 1 119.8800511 375.723200
18472 18474 18476 1 120.0200517 532.790560
18475 18474 18476 1 119.8800511 375.723200
18467 18476 18474 1 120.0200517 532.790560
18467 18476 18477 1 119.8800511 375.723200
18474 18476 18477 1 119.8800511 375.723200
18478 18479 18480 1 119.8800511 375.723200
18478 18479 18488 1 119.8800511 375.723200
18480 18479 18488 1 120.0200517 532.790560
18479 18480 18481 1 121.3800518 83.010560
18479 18480 18482 1 120.0200517 532.790560
18481 18480 18482 1 121.3800518 83.010560
417 18481 418 1 109.50000 418.400000
417 18481 419 1 109.50000 418.400000
417 18481 18480 1 103.70004 836.800000
418 18481 419 1 109.50000 418.400000
418 18481 18480 1 103.70004 836.800000
419 18481 18480 1 103.70004 836.800000
18480 18482 18483 1 119.8800511 375.723200
18480 18482 18484 1 120.0200517 532.790560
18483 18482 18484 1 119.8800511 375.723200
18482 18484 18485 1 119.8800511 375.723200
18482 18484 18486 1 120.0200517 532.790560
18485 18484 18486 1 119.8800511 375.723200
18484 18486 18487 1 119.8800511 375.723200
18484 18486 18488 1 120.0200517 532.790560
18487 18486 18488 1 119.8800511 375.723200
18479 18488 18486 1 120.0200517 532.790560
18479 18488 18489 1 119.8800511 375.723200
18486 18488 18489 1 119.8800511 375.723200
18490 18491 18492 1 119.8800511 375.723200
18490 18491 18500 1 119.8800511 375.723200
18492 18491 18500 1 120.0200517 532.790560
18491 18492 18493 1 121.3800518 83.010560
18491 18492 18494 1 120.0200517 532.790560
18493 18492 18494 1 121.3800518 83.010560
8173 18493 9098 1 109.50000 418.400000
8173 18493 11216 1 109.50000 418.400000
8173 18493 18492 1 103.70004 836.800000
9098 18493 11216 1 109.50000 418.400000
9098 18493 18492 1 103.70004 836.800000
11216 18493 18492 1 103.70004 836.800000
18492 18494 18495 1 119.8800511 375.723200
18492 18494 18496 1 120.0200517 532.790560
18495 18494 18496 1 119.8800511 375.723200
18494 18496 18497 1 119.8800511 375.723200
18494 18496 18498 1 120.0200517 532.790560
18497 18496 18498 1 119.8800511 375.723200
18496 18498 18499 1 119.8800511 375.723200
18496 18498 18500 1 120.0200517 532.790560
18499 18498 18500 1 119.8800511 375.723200
18491 18500 18498 1 120.0200517 532.790560
18491 18500 18501 1 119.8800511 375.723200
18498 18500 18501 1 119.8800511 375.723200
18502 18503 18504 1 119.8800511 375.723200
18502 18503 18512 1 119.8800511 375.723200
18504 18503 18512 1 120.0200517 532.790560
18503 18504 18505 1 121.3800518 83.010560
18503 18504 18506 1 120.0200517 532.790560
18505 18504 18506 1 121.3800518 83.010560
8634 18505 8635 1 109.50000 418.400000
8634 18505 8636 1 109.50000 418.400000
8634 18505 18504 1 103.70004 836.800000
8635 18505 8636 1 109.50000 418.400000
8635 18505 18504 1 103.70004 836.800000
8636 18505 18504 1 103.70004 836.800000
18504 18506 18507 1 119.8800511 375.723200
18504 18506 18508 1 120.0200517 532.790560
18507 18506 18508 1 119.8800511 375.723200
18506 18508 18509 1 119.8800511 375.723200
18506 18508 18510 1 120.0200517 532.790560
18509 18508 18510 1 119.8800511 375.723200
18508 18510 18511 1 119.8800511 375.723200
18508 18510 18512 1 120.0200517 532.790560
18511 18510 18512 1 119.8800511 375.723200
18503 18512 18510 1 120.0200517 532.790560
18503 18512 18513 1 119.8800511 375.723200
18510 18512 18513 1 119.8800511 375.723200
18514 18515 18516 1 119.8800511 375.723200
18514 18515 18524 1 119.8800511 375.723200
18516 18515 18524 1 120.0200517 532.790560
18515 18516 18517 1 121.3800518 83.010560
18515 18516 18518 1 120.0200517 532.790560
18517 18516 18518 1 121.3800518 83.010560
8459 18517 10864 1 109.50000 418.400000
8459 18517 10867 1 109.50000 418.400000
8459 18517 18516 1 103.70004 836.800000
10864 18517 10867 1 109.50000 418.400000
10864 18517 18516 1 103.70004 836.800000
10867 18517 18516 1 103.70004 836.800000
18516 18518 18519 1 119.8800511 375.723200
18516 18518 18520 1 120.0200517 532.790560
18519 18518 18520 1 119.8800511 375.723200
18518 18520 18521 1 119.8800511 375.723200
18518 18520 18522 1 120.0200517 532.790560
18521 18520 18522 1 119.8800511 375.723200
18520 18522 18523 1 119.8800511 375.723200
18520 18522 18524 1 120.0200517 532.790560
18523 18522 18524 1 119.8800511 375.723200
18515 18524 18522 1 120.0200517 532.790560
18515 18524 18525 1 119.8800511 375.723200
18522 18524 18525 1 119.8800511 375.723200
18526 18527 18528 1 119.8800511 375.723200
18526 18527 18536 1 119.8800511 375.723200
18528 18527 18536 1 120.0200517 532.790560
18527 18528 18529 1 121.3800518 83.010560
18527 18528 18530 1 120.0200517 532.790560
18529 18528 18530 1 121.3800518 83.010560
1154 18529 5979 1 109.50000 418.400000
1154 18529 5980 1 109.50000 418.400000
1154 18529 18528 1 103.70004 836.800000
5979 18529 5980 1 109.50000 418.400000
5979 18529 18528 1 103.70004 836.800000
5980 18529 18528 1 103.70004 836.800000
18528 18530 18531 1 119.8800511 375.723200
18528 18530 18532 1 120.0200517 532.790560
18531 18530 18532 1 119.8800511 375.723200
18530 18532 18533 1 119.8800511 375.723200
18530 18532 18534 1 120.0200517 532.790560
18533 18532 18534 1 119.8800511 375.723200
18532 18534 18535 1 119.8800511 375.723200
18532 18534 18536 1 120.0200517 532.790560
18535 18534 18536 1 119.8800511 375.723200
18527 18536 18534 1 120.0200517 532.790560
18527 18536 18537 1 119.8800511 375.723200
18534 18536 18537 1 119.8800511 375.723200
18538 18539 18540 1 119.8800511 375.723200
18538 18539 18548 1 119.8800511 375.723200
18540 18539 18548 1 120.0200517 532.790560
18539 18540 18541 1 121.3800518 83.010560
18539 18540 18542 1 120.0200517 532.790560
18541 18540 18542 1 121.3800518 83.010560
6901 18541 10756 1 109.50000 418.400000
6901 18541 10757 1 109.50000 418.400000
6901 18541 18540 1 103.70004 836.800000
10756 18541 10757 1 109.50000 418.400000
10756 18541 18540 1 103.70004 836.800000
10757 18541 18540 1 103.70004 836.800000
18540 18542 18543 1 119.8800511 375.723200
18540 18542 18544 1 120.0200517 532.790560
18543 18542 18544 1 119.8800511 375.723200
18542 18544 18545 1 119.8800511 375.723200
18542 18544 18546 1 120.0200517 532.790560
18545 18544 18546 1 119.8800511 375.723200
18544 18546 18547 1 119.8800511 375.723200
18544 18546 18548 1 120.0200517 532.790560
18547 18546 18548 1 119.8800511 375.723200
18539 18548 18546 1 120.0200517 532.790560
18539 18548 18549 1 119.8800511 375.723200
18546 18548 18549 1 119.8800511 375.723200
18550 18551 18552 1 119.8800511 375.723200
18550 18551 18560 1 119.8800511 375.723200
18552 18551 18560 1 120.0200517 532.790560
18551 18552 18553 1 121.3800518 83.010560
18551 18552 18554 1 120.0200517 532.790560
18553 18552 18554 1 121.3800518 83.010560
1650 18553 1651 1 109.50000 418.400000
1650 18553 11143 1 109.50000 418.400000
1650 18553 18552 1 103.70004 836.800000
1651 18553 11143 1 109.50000 418.400000
1651 18553 18552 1 103.70004 836.800000
11143 18553 18552 1 103.70004 836.800000
18552 18554 18555 1 119.8800511 375.723200
18552 18554 18556 1 120.0200517 532.790560
18555 18554 18556 1 119.8800511 375.723200
18554 18556 18557 1 119.8800511 375.723200
18554 18556 18558 1 120.0200517 532.790560
18557 18556 18558 1 119.8800511 375.723200
18556 18558 18559 1 119.8800511 375.723200
18556 18558 18560 1 120.0200517 532.790560
18559 18558 18560 1 119.8800511 375.723200
18551 18560 18558 1 120.0200517 532.790560
18551 18560 18561 1 119.8800511 375.723200
18558 18560 18561 1 119.8800511 375.723200
18562 18563 18564 1 119.8800511 375.723200
18562 18563 18572 1 119.8800511 375.723200
18564 18563 18572 1 120.0200517 532.790560
18563 18564 18565 1 121.3800518 83.010560
18563 18564 18566 1 120.0200517 532.790560
18565 18564 18566 1 121.3800518 83.010560
4795 18565 6122 1 109.50000 418.400000
4795 18565 6123 1 109.50000 418.400000
4795 18565 18564 1 103.70004 836.800000
6122 18565 6123 1 109.50000 418.400000
6122 18565 18564 1 103.70004 836.800000
6123 18565 18564 1 103.70004 836.800000
18564 18566 18567 1 119.8800511 375.723200
18564 18566 18568 1 120.0200517 532.790560
18567 18566 18568 1 119.8800511 375.723200
18566 18568 18569 1 119.8800511 375.723200
18566 18568 18570 1 120.0200517 532.790560
18569 18568 18570 1 119.8800511 375.723200
18568 18570 18571 1 119.8800511 375.723200
18568 18570 18572 1 120.0200517 532.790560
18571 18570 18572 1 119.8800511 375.723200
18563 18572 18570 1 120.0200517 532.790560
18563 18572 18573 1 119.8800511 375.723200
18570 18572 18573 1 119.8800511 375.723200
18574 18575 18576 1 119.8800511 375.723200
18574 18575 18584 1 119.8800511 375.723200
18576 18575 18584 1 120.0200517 532.790560
18575 18576 18577 1 121.3800518 83.010560
18575 18576 18578 1 120.0200517 532.790560
18577 18576 18578 1 121.3800518 83.010560
4586 18577 4587 1 109.50000 418.400000
4586 18577 4588 1 109.50000 418.400000
4586 18577 18576 1 103.70004 836.800000
4587 18577 4588 1 109.50000 418.400000
4587 18577 18576 1 103.70004 836.800000
4588 18577 18576 1 103.70004 836.800000
18576 18578 18579 1 119.8800511 375.723200
18576 18578 18580 1 120.0200517 532.790560
18579 18578 18580 1 119.8800511 375.723200
18578 18580 18581 1 119.8800511 375.723200
18578 18580 18582 1 120.0200517 532.790560
18581 18580 18582 1 119.8800511 375.723200
18580 18582 18583 1 119.8800511 375.723200
18580 18582 18584 1 120.0200517 532.790560
18583 18582 18584 1 119.8800511 375.723200
18575 18584 18582 1 120.0200517 532.790560
18575 18584 18585 1 119.8800511 375.723200
18582 18584 18585 1 119.8800511 375.723200
18586 18587 18588 1 119.8800511 375.723200
18586 18587 18596 1 119.8800511 375.723200
18588 18587 18596 1 120.0200517 532.790560
18587 18588 18589 1 121.3800518 83.010560
18587 18588 18590 1 120.0200517 532.790560
18589 18588 18590 1 121.3800518 83.010560
10409 18589 10694 1 109.50000 418.400000
10409 18589 11243 1 109.50000 418.400000
10409 18589 18588 1 103.70004 836.800000
10694 18589 11243 1 109.50000 418.400000
10694 18589 18588 1 103.70004 836.800000
11243 18589 18588 1 103.70004 836.800000
18588 18590 18591 1 119.8800511 375.723200
18588 18590 18592 1 120.0200517 532.790560
18591 18590 18592 1 119.8800511 375.723200
18590 18592 18593 1 119.8800511 375.723200
18590 18592 18594 1 120.0200517 532.790560
18593 18592 18594 1 119.8800511 375.723200
18592 18594 18595 1 119.8800511 375.723200
18592 18594 18596 1 120.0200517 532.790560
18595 18594 18596 1 119.8800511 375.723200
18587 18596 18594 1 120.0200517 532.790560
18587 18596 18597 1 119.8800511 375.723200
18594 18596 18597 1 119.8800511 375.723200
18598 18599 18600 1 119.8800511 375.723200
18598 18599 18608 1 119.8800511 375.723200
18600 18599 18608 1 120.0200517 532.790560
18599 18600 18601 1 121.3800518 83.010560
18599 18600 18602 1 120.0200517 532.790560
18601 18600 18602 1 121.3800518 83.010560
6558 18601 7278 1 109.50000 418.400000
6558 18601 9648 1 109.50000 418.400000
6558 18601 18600 1 103.70004 836.800000
7278 18601 9648 1 109.50000 418.400000
7278 18601 18600 1 103.70004 836.800000
9648 18601 18600 1 103.70004 836.800000
18600 18602 18603 1 119.8800511 375.723200
18600 18602 18604 1 120.0200517 532.790560
18603 18602 18604 1 119.8800511 375.723200
18602 18604 18605 1 119.8800511 375.723200
18602 18604 18606 1 120.0200517 532.790560
18605 18604 18606 1 119.8800511 375.723200
18604 18606 18607 1 119.8800511 375.723200
18604 18606 18608 1 120.0200517 532.790560
18607 18606 18608 1 119.8800511 375.723200
18599 18608 18606 1 120.0200517 532.790560
18599 18608 18609 1 119.8800511 375.723200
18606 18608 18609 1 119.8800511 375.723200
18610 18611 18612 1 119.8800511 375.723200
18610 18611 18620 1 119.8800511 375.723200
18612 18611 18620 1 120.0200517 532.790560
18611 18612 18613 1 121.3800518 83.010560
18611 18612 18614 1 120.0200517 532.790560
18613 18612 18614 1 121.3800518 83.010560
4439 18613 6909 1 109.50000 418.400000
4439 18613 9574 1 109.50000 418.400000
4439 18613 18612 1 103.70004 836.800000
6909 18613 9574 1 109.50000 418.400000
6909 18613 18612 1 103.70004 836.800000
9574 18613 18612 1 103.70004 836.800000
18612 18614 18615 1 119.8800511 375.723200
18612 18614 18616 1 120.0200517 532.790560
18615 18614 18616 1 119.8800511 375.723200
18614 18616 18617 1 119.8800511 375.723200
18614 18616 18618 1 120.0200517 532.790560
18617 18616 18618 1 119.8800511 375.723200
18616 18618 18619 1 119.8800511 375.723200
18616 18618 18620 1 120.0200517 532.790560
18619 18618 18620 1 119.8800511 375.723200
18611 18620 18618 1 120.0200517 532.790560
18611 18620 18621 1 119.8800511 375.723200
18618 18620 18621 1 119.8800511 375.723200
18622 18623 18624 1 119.8800511 375.723200
18622 18623 18632 1 119.8800511 375.723200
18624 18623 18632 1 120.0200517 532.790560
18623 18624 18625 1 121.3800518 83.010560
18623 18624 18626 1 120.0200517 532.790560
18625 18624 18626 1 121.3800518 83.010560
369 18625 8212 1 109.50000 418.400000
369 18625 9394 1 109.50000 418.400000
369 18625 18624 1 103.70004 836.800000
8212 18625 9394 1 109.50000 418.400000
8212 18625 18624 1 103.70004 836.800000
9394 18625 18624 1 103.70004 836.800000
18624 18626 18627 1 119.8800511 375.723200
18624 18626 18628 1 120.0200517 532.790560
18627 18626 18628 1 119.8800511 375.723200
18626 18628 18629 1 119.8800511 375.723200
18626 18628 18630 1 120.0200517 532.790560
18629 18628 18630 1 119.8800511 375.723200
18628 18630 18631 1 119.8800511 375.723200
18628 18630 18632 1 120.0200517 532.790560
18631 18630 18632 1 119.8800511 375.723200
18623 18632 18630 1 120.0200517 532.790560
18623 18632 18633 1 119.8800511 375.723200
18630 18632 18633 1 119.8800511 375.723200
18634 18635 18636 1 119.8800511 375.723200
18634 18635 18644 1 119.8800511 375.723200
18636 18635 18644 1 120.0200517 532.790560
18635 18636 18637 1 121.3800518 83.010560
18635 18636 18638 1 120.0200517 532.790560
18637 18636 18638 1 121.3800518 83.010560
4779 18637 6100 1 109.50000 418.400000
4779 18637 9541 1 109.50000 418.400000
4779 18637 18636 1 103.70004 836.800000
6100 18637 9541 1 109.50000 418.400000
6100 18637 18636 1 103.70004 836.800000
9541 18637 18636 1 103.70004 836.800000
18636 18638 18639 1 119.8800511 375.723200
18636 18638 18640 1 120.0200517 532.790560
18639 18638 18640 1 119.8800511 375.723200
18638 18640 18641 1 119.8800511 375.723200
18638 18640 18642 1 120.0200517 532.790560
18641 18640 18642 1 119.8800511 375.723200
18640 18642 18643 1 119.8800511 375.723200
18640 18642 18644 1 120.0200517 532.790560
18643 18642 18644 1 119.8800511 375.723200
18635 18644 18642 1 120.0200517 532.790560
18635 18644 18645 1 119.8800511 375.723200
18642 18644 18645 1 119.8800511 375.723200
18646 18647 18648 1 119.8800511 375.723200
18646 18647 18656 1 119.8800511 375.723200
18648 18647 18656 1 120.0200517 532.790560
18647 18648 18649 1 121.3800518 83.010560
18647 18648 18650 1 120.0200517 532.790560
18649 18648 18650 1 121.3800518 83.010560
6489 18649 9556 1 109.50000 418.400000
6489 18649 9691 1 109.50000 418.400000
6489 18649 18648 1 103.70004 836.800000
9556 18649 9691 1 109.50000 418.400000
9556 18649 18648 1 103.70004 836.800000
9691 18649 18648 1 103.70004 836.800000
18648 18650 18651 1 119.8800511 375.723200
18648 18650 18652 1 120.0200517 532.790560
18651 18650 18652 1 119.8800511 375.723200
18650 18652 18653 1 119.8800511 375.723200
18650 18652 18654 1 120.0200517 532.790560
18653 18652 18654 1 119.8800511 375.723200
18652 18654 18655 1 119.8800511 375.723200
18652 18654 18656 1 120.0200517 532.790560
18655 18654 18656 1 119.8800511 375.723200
18647 18656 18654 1 120.0200517 532.790560
18647 18656 18657 1 119.8800511 375.723200
18654 18656 18657 1 119.8800511 375.723200
18658 18659 18660 1 119.8800511 375.723200
18658 18659 18668 1 119.8800511 375.723200
18660 18659 18668 1 120.0200517 532.790560
18659 18660 18661 1 121.3800518 83.010560
18659 18660 18662 1 120.0200517 532.790560
18661 18660 18662 1 121.3800518 83.010560
68 18661 69 1 109.50000 418.400000
68 18661 11149 1 109.50000 418.400000
68 18661 18660 1 103.70004 836.800000
69 18661 11149 1 109.50000 418.400000
69 18661 18660 1 103.70004 836.800000
11149 18661 18660 1 103.70004 836.800000
18660 18662 18663 1 119.8800511 375.723200
18660 18662 18664 1 120.0200517 532.790560
18663 18662 18664 1 119.8800511 375.723200
18662 18664 18665 1 119.8800511 375.723200
18662 18664 18666 1 120.0200517 532.790560
18665 18664 18666 1 119.8800511 375.723200
18664 18666 18667 1 119.8800511 375.723200
18664 18666 18668 1 120.0200517 532.790560
18667 18666 18668 1 119.8800511 375.723200
18659 18668 18666 1 120.0200517 532.790560
18659 18668 18669 1 119.8800511 375.723200
18666 18668 18669 1 119.8800511 375.723200
18670 18671 18672 1 119.8800511 375.723200
18670 18671 18680 1 119.8800511 375.723200
18672 18671 18680 1 120.0200517 532.790560
18671 18672 18673 1 121.3800518 83.010560
18671 18672 18674 1 120.0200517 532.790560
18673 18672 18674 1 121.3800518 83.010560
1037 18673 7956 1 109.50000 418.400000
1037 18673 9734 1 109.50000 418.400000
1037 18673 18672 1 103.70004 836.800000
7956 18673 9734 1 109.50000 418.400000
7956 18673 18672 1 103.70004 836.800000
9734 18673 18672 1 103.70004 836.800000
18672 18674 18675 1 119.8800511 375.723200
18672 18674 18676 1 120.0200517 532.790560
18675 18674 18676 1 119.8800511 375.723200
18674 18676 18677 1 119.8800511 375.723200
18674 18676 18678 1 120.0200517 532.790560
18677 18676 18678 1 119.8800511 375.723200
18676 18678 18679 1 119.8800511 375.723200
18676 18678 18680 1 120.0200517 532.790560
18679 18678 18680 1 119.8800511 375.723200
18671 18680 18678 1 120.0200517 532.790560
18671 18680 18681 1 119.8800511 375.723200
18678 18680 18681 1 119.8800511 375.723200
18682 18683 18684 1 119.8800511 375.723200
18682 18683 18692 1 119.8800511 375.723200
18684 18683 18692 1 120.0200517 532.790560
18683 18684 18685 1 121.3800518 83.010560
18683 18684 18686 1 120.0200517 532.790560
18685 18684 18686 1 121.3800518 83.010560
1288 18685 5234 1 109.50000 418.400000
1288 18685 5235 1 109.50000 418.400000
1288 18685 18684 1 103.70004 836.800000
5234 18685 5235 1 109.50000 418.400000
5234 18685 18684 1 103.70004 836.800000
5235 18685 18684 1 103.70004 836.800000
18684 18686 18687 1 119.8800511 375.723200
18684 18686 18688 1 120.0200517 532.790560
18687 18686 18688 1 119.8800511 375.723200
18686 18688 18689 1 119.8800511 375.723200
18686 18688 18690 1 120.0200517 532.790560
18689 18688 18690 1 119.8800511 375.723200
18688 18690 18691 1 119.8800511 375.723200
18688 18690 18692 1 120.0200517 532.790560
18691 18690 18692 1 119.8800511 375.723200
18683 18692 18690 1 120.0200517 532.790560
18683 18692 18693 1 119.8800511 375.723200
18690 18692 18693 1 119.8800511 375.723200
18694 18695 18696 1 119.8800511 375.723200
18694 18695 18704 1 119.8800511 375.723200
18696 18695 18704 1 120.0200517 532.790560
18695 18696 18697 1 121.3800518 83.010560
18695 18696 18698 1 120.0200517 532.790560
18697 18696 18698 1 121.3800518 83.010560
221 18697 5234 1 109.50000 418.400000
221 18697 6192 1 109.50000 418.400000
221 18697 18696 1 103.70004 836.800000
5234 18697 6192 1 109.50000 418.400000
5234 18697 18696 1 103.70004 836.800000
6192 18697 18696 1 103.70004 836.800000
18696 18698 18699 1 119.8800511 375.723200
18696 18698 18700 1 120.0200517 532.790560
18699 18698 18700 1 119.8800511 375.723200
18698 18700 18701 1 119.8800511 375.723200
18698 18700 18702 1 120.0200517 532.790560
18701 18700 18702 1 119.8800511 375.723200
18700 18702 18703 1 119.8800511 375.723200
18700 18702 18704 1 120.0200517 532.790560
18703 18702 18704 1 119.8800511 375.723200
18695 18704 18702 1 120.0200517 532.790560
18695 18704 18705 1 119.8800511 375.723200
18702 18704 18705 1 119.8800511 375.723200
18706 18707 18708 1 119.8800511 375.723200
18706 18707 18716 1 119.8800511 375.723200
18708 18707 18716 1 120.0200517 532.790560
18707 18708 18709 1 121.3800518 83.010560
18707 18708 18710 1 120.0200517 532.790560
18709 18708 18710 1 121.3800518 83.010560
2043 18709 2044 1 109.50000 418.400000
2043 18709 2045 1 109.50000 418.400000
2043 18709 18708 1 103.70004 836.800000
2044 18709 2045 1 109.50000 418.400000
2044 18709 18708 1 103.70004 836.800000
2045 18709 18708 1 103.70004 836.800000
18708 18710 18711 1 119.8800511 375.723200
18708 18710 18712 1 120.0200517 532.790560
18711 18710 18712 1 119.8800511 375.723200
18710 18712 18713 1 119.8800511 375.723200
18710 18712 18714 1 120.0200517 532.790560
18713 18712 18714 1 119.8800511 375.723200
18712 18714 18715 1 119.8800511 375.723200
18712 18714 18716 1 120.0200517 532.790560
18715 18714 18716 1 119.8800511 375.723200
18707 18716 18714 1 120.0200517 532.790560
18707 18716 18717 1 119.8800511 375.723200
18714 18716 18717 1 119.8800511 375.723200
18718 18719 18720 1 119.8800511 375.723200
18718 18719 18728 1 119.8800511 375.723200
18720 18719 18728 1 120.0200517 532.790560
18719 18720 18721 1 121.3800518 83.010560
18719 18720 18722 1 120.0200517 532.790560
18721 18720 18722 1 121.3800518 83.010560
5352 18721 8237 1 109.50000 418.400000
5352 18721 8373 1 109.50000 418.400000
5352 18721 18720 1 103.70004 836.800000
8237 18721 8373 1 109.50000 418.400000
8237 18721 18720 1 103.70004 836.800000
8373 18721 18720 1 103.70004 836.800000
18720 18722 18723 1 119.8800511 375.723200
18720 18722 18724 1 120.0200517 532.790560
18723 18722 18724 1 119.8800511 375.723200
18722 18724 18725 1 119.8800511 375.723200
18722 18724 18726 1 120.0200517 532.790560
18725 18724 18726 1 119.8800511 375.723200
18724 18726 18727 1 119.8800511 375.723200
18724 18726 18728 1 120.0200517 532.790560
18727 18726 18728 1 119.8800511 375.723200
18719 18728 18726 1 120.0200517 532.790560
18719 18728 18729 1 119.8800511 375.723200
18726 18728 18729 1 119.8800511 375.723200
18730 18731 18732 1 119.8800511 375.723200
18730 18731 18740 1 119.8800511 375.723200
18732 18731 18740 1 120.0200517 532.790560
18731 18732 18733 1 121.3800518 83.010560
18731 18732 18734 1 120.0200517 532.790560
18733 18732 18734 1 121.3800518 83.010560
5725 18733 5726 1 109.50000 418.400000
5725 18733 5727 1 109.50000 418.400000
5725 18733 18732 1 103.70004 836.800000
5726 18733 5727 1 109.50000 418.400000
5726 18733 18732 1 103.70004 836.800000
5727 18733 18732 1 103.70004 836.800000
18732 18734 18735 1 119.8800511 375.723200
18732 18734 18736 1 120.0200517 532.790560
18735 18734 18736 1 119.8800511 375.723200
18734 18736 18737 1 119.8800511 375.723200
18734 18736 18738 1 120.0200517 532.790560
18737 18736 18738 1 119.8800511 375.723200
18736 18738 18739 1 119.8800511 375.723200
18736 18738 18740 1 120.0200517 532.790560
18739 18738 18740 1 119.8800511 375.723200
18731 18740 18738 1 120.0200517 532.790560
18731 18740 18741 1 119.8800511 375.723200
18738 18740 18741 1 119.8800511 375.723200
18742 18743 18744 1 119.8800511 375.723200
18742 18743 18752 1 119.8800511 375.723200
18744 18743 18752 1 120.0200517 532.790560
18743 18744 18745 1 121.3800518 83.010560
18743 18744 18746 1 120.0200517 532.790560
18745 18744 18746 1 121.3800518 83.010560
5019 18745 5344 1 109.50000 418.400000
5019 18745 11148 1 109.50000 418.400000
5019 18745 18744 1 103.70004 836.800000
5344 18745 11148 1 109.50000 418.400000
5344 18745 18744 1 103.70004 836.800000
11148 18745 18744 1 103.70004 836.800000
18744 18746 18747 1 119.8800511 375.723200
18744 18746 18748 1 120.0200517 532.790560
18747 18746 18748 1 119.8800511 375.723200
18746 18748 18749 1 119.8800511 375.723200
18746 18748 18750 1 120.0200517 532.790560
18749 18748 18750 1 119.8800511 375.723200
18748 18750 18751 1 119.8800511 375.723200
18748 18750 18752 1 120.0200517 532.790560
18751 18750 18752 1 119.8800511 375.723200
18743 18752 18750 1 120.0200517 532.790560
18743 18752 18753 1 119.8800511 375.723200
18750 18752 18753 1 119.8800511 375.723200
18754 18755 18756 1 119.8800511 375.723200
18754 18755 18764 1 119.8800511 375.723200
18756 18755 18764 1 120.0200517 532.790560
18755 18756 18757 1 121.3800518 83.010560
18755 18756 18758 1 120.0200517 532.790560
18757 18756 18758 1 121.3800518 83.010560
9668 18757 10569 1 109.50000 418.400000
9668 18757 10902 1 109.50000 418.400000
9668 18757 18756 1 103.70004 836.800000
10569 18757 10902 1 109.50000 418.400000
10569 18757 18756 1 103.70004 836.800000
10902 18757 18756 1 103.70004 836.800000
18756 18758 18759 1 119.8800511 375.723200
18756 18758 18760 1 120.0200517 532.790560
18759 18758 18760 1 119.8800511 375.723200
18758 18760 18761 1 119.8800511 375.723200
18758 18760 18762 1 120.0200517 532.790560
18761 18760 18762 1 119.8800511 375.723200
18760 18762 18763 1 119.8800511 375.723200
18760 18762 18764 1 120.0200517 532.790560
18763 18762 18764 1 119.8800511 375.723200
18755 18764 18762 1 120.0200517 532.790560
18755 18764 18765 1 119.8800511 375.723200
18762 18764 18765 1 119.8800511 375.723200
18766 18767 18768 1 119.8800511 375.723200
18766 18767 18776 1 119.8800511 375.723200
18768 18767 18776 1 120.0200517 532.790560
18767 18768 18769 1 121.3800518 83.010560
18767 18768 18770 1 120.0200517 532.790560
18769 18768 18770 1 121.3800518 83.010560
1563 18769 9054 1 109.50000 418.400000
1563 18769 9055 1 109.50000 418.400000
1563 18769 18768 1 103.70004 836.800000
9054 18769 9055 1 109.50000 418.400000
9054 18769 18768 1 103.70004 836.800000
9055 18769 18768 1 103.70004 836.800000
18768 18770 18771 1 119.8800511 375.723200
18768 18770 18772 1 120.0200517 532.790560
18771 18770 18772 1 119.8800511 375.723200
18770 18772 18773 1 119.8800511 375.723200
18770 18772 18774 1 120.0200517 532.790560
18773 18772 18774 1 119.8800511 375.723200
18772 18774 18775 1 119.8800511 375.723200
18772 18774 18776 1 120.0200517 532.790560
18775 18774 18776 1 119.8800511 375.723200
18767 18776 18774 1 120.0200517 532.790560
18767 18776 18777 1 119.8800511 375.723200
18774 18776 18777 1 119.8800511 375.723200
18778 18779 18780 1 119.8800511 375.723200
18778 18779 18788 1 119.8800511 375.723200
18780 18779 18788 1 120.0200517 532.790560
18779 18780 18781 1 121.3800518 83.010560
18779 18780 18782 1 120.0200517 532.790560
18781 18780 18782 1 121.3800518 83.010560
1945 18781 6569 1 109.50000 418.400000
1945 18781 6570 1 109.50000 418.400000
1945 18781 18780 1 103.70004 836.800000
6569 18781 6570 1 109.50000 418.400000
6569 18781 18780 1 103.70004 836.800000
6570 18781 18780 1 103.70004 836.800000
18780 18782 18783 1 119.8800511 375.723200
18780 18782 18784 1 120.0200517 532.790560
18783 18782 18784 1 119.8800511 375.723200
18782 18784 18785 1 119.8800511 375.723200
18782 18784 18786 1 120.0200517 532.790560
18785 18784 18786 1 119.8800511 375.723200
18784 18786 18787 1 119.8800511 375.723200
18784 18786 18788 1 120.0200517 532.790560
18787 18786 18788 1 119.8800511 375.723200
18779 18788 18786 1 120.0200517 532.790560
18779 18788 18789 1 119.8800511 375.723200
18786 18788 18789 1 119.8800511 375.723200
18790 18791 18792 1 119.8800511 375.723200
18790 18791 18800 1 119.8800511 375.723200
18792 18791 18800 1 120.0200517 532.790560
18791 18792 18793 1 121.3800518 83.010560
18791 18792 18794 1 120.0200517 532.790560
18793 18792 18794 1 121.3800518 83.010560
4085 18793 5486 1 109.50000 418.400000
4085 18793 5487 1 109.50000 418.400000
4085 18793 18792 1 103.70004 836.800000
5486 18793 5487 1 109.50000 418.400000
5486 18793 18792 1 103.70004 836.800000
5487 18793 18792 1 103.70004 836.800000
18792 18794 18795 1 119.8800511 375.723200
18792 18794 18796 1 120.0200517 532.790560
18795 18794 18796 1 119.8800511 375.723200
18794 18796 18797 1 119.8800511 375.723200
18794 18796 18798 1 120.0200517 532.790560
18797 18796 18798 1 119.8800511 375.723200
18796 18798 18799 1 119.8800511 375.723200
18796 18798 18800 1 120.0200517 532.790560
18799 18798 18800 1 119.8800511 375.723200
18791 18800 18798 1 120.0200517 532.790560
18791 18800 18801 1 119.8800511 375.723200
18798 18800 18801 1 119.8800511 375.723200
18802 18803 18804 1 119.8800511 375.723200
18802 18803 18812 1 119.8800511 375.723200
18804 18803 18812 1 120.0200517 532.790560
18803 18804 18805 1 121.3800518 83.010560
18803 18804 18806 1 120.0200517 532.790560
18805 18804 18806 1 121.3800518 83.010560
4075 18805 4297 1 109.50000 418.400000
4075 18805 4298 1 109.50000 418.400000
4075 18805 18804 1 103.70004 836.800000
4297 18805 4298 1 109.50000 418.400000
4297 18805 18804 1 103.70004 836.800000
4298 18805 18804 1 103.70004 836.800000
18804 18806 18807 1 119.8800511 375.723200
18804 18806 18808 1 120.0200517 532.790560
18807 18806 18808 1 119.8800511 375.723200
18806 18808 18809 1 119.8800511 375.723200
18806 18808 18810 1 120.0200517 532.790560
18809 18808 18810 1 119.8800511 375.723200
18808 18810 18811 1 119.8800511 375.723200
18808 18810 18812 1 120.0200517 532.790560
18811 18810 18812 1 119.8800511 375.723200
18803 18812 18810 1 120.0200517 532.790560
18803 18812 18813 1 119.8800511 375.723200
18810 18812 18813 1 119.8800511 375.723200
18814 18815 18816 1 119.8800511 375.723200
18814 18815 18824 1 119.8800511 375.723200
18816 18815 18824 1 120.0200517 532.790560
18815 18816 18817 1 121.3800518 83.010560
18815 18816 18818 1 120.0200517 532.790560
18817 18816 18818 1 121.3800518 83.010560
3301 18817 5391 1 109.50000 418.400000
3301 18817 5392 1 109.50000 418.400000
3301 18817 18816 1 103.70004 836.800000
5391 18817 5392 1 109.50000 418.400000
5391 18817 18816 1 103.70004 836.800000
5392 18817 18816 1 103.70004 836.800000
18816 18818 18819 1 119.8800511 375.723200
18816 18818 18820 1 120.0200517 532.790560
18819 18818 18820 1 119.8800511 375.723200
18818 18820 18821 1 119.8800511 375.723200
18818 18820 18822 1 120.0200517 532.790560
18821 18820 18822 1 119.8800511 375.723200
18820 18822 18823 1 119.8800511 375.723200
18820 18822 18824 1 120.0200517 532.790560
18823 18822 18824 1 119.8800511 375.723200
18815 18824 18822 1 120.0200517 532.790560
18815 18824 18825 1 119.8800511 375.723200
18822 18824 18825 1 119.8800511 375.723200
18826 18827 18828 1 119.8800511 375.723200
18826 18827 18836 1 119.8800511 375.723200
18828 18827 18836 1 120.0200517 532.790560
18827 18828 18829 1 121.3800518 83.010560
18827 18828 18830 1 120.0200517 532.790560
18829 18828 18830 1 121.3800518 83.010560
1774 18829 7441 1 109.50000 418.400000
1774 18829 8198 1 109.50000 418.400000
1774 18829 18828 1 103.70004 836.800000
7441 18829 8198 1 109.50000 418.400000
7441 18829 18828 1 103.70004 836.800000
8198 18829 18828 1 103.70004 836.800000
18828 18830 18831 1 119.8800511 375.723200
18828 18830 18832 1 120.0200517 532.790560
18831 18830 18832 1 119.8800511 375.723200
18830 18832 18833 1 119.8800511 375.723200
18830 18832 18834 1 120.0200517 532.790560
18833 18832 18834 1 119.8800511 375.723200
18832 18834 18835 1 119.8800511 375.723200
18832 18834 18836 1 120.0200517 532.790560
18835 18834 18836 1 119.8800511 375.723200
18827 18836 18834 1 120.0200517 532.790560
18827 18836 18837 1 119.8800511 375.723200
18834 18836 18837 1 119.8800511 375.723200
18838 18839 18840 1 119.8800511 375.723200
18838 18839 18848 1 119.8800511 375.723200
18840 18839 18848 1 120.0200517 532.790560
18839 18840 18841 1 121.3800518 83.010560
18839 18840 18842 1 120.0200517 532.790560
18841 18840 18842 1 121.3800518 83.010560
4709 18841 5104 1 109.50000 418.400000
4709 18841 5105 1 109.50000 418.400000
4709 18841 18840 1 103.70004 836.800000
5104 18841 5105 1 109.50000 418.400000
5104 18841 18840 1 103.70004 836.800000
5105 18841 18840 1 103.70004 836.800000
18840 18842 18843 1 119.8800511 375.723200
18840 18842 18844 1 120.0200517 532.790560
18843 18842 18844 1 119.8800511 375.723200
18842 18844 18845 1 119.8800511 375.723200
18842 18844 18846 1 120.0200517 532.790560
18845 18844 18846 1 119.8800511 375.723200
18844 18846 18847 1 119.8800511 375.723200
18844 18846 18848 1 120.0200517 532.790560
18847 18846 18848 1 119.8800511 375.723200
18839 18848 18846 1 120.0200517 532.790560
18839 18848 18849 1 119.8800511 375.723200
18846 18848 18849 1 119.8800511 375.723200
18850 18851 18852 1 119.8800511 375.723200
18850 18851 18860 1 119.8800511 375.723200
18852 18851 18860 1 120.0200517 532.790560
18851 18852 18853 1 121.3800518 83.010560
18851 18852 18854 1 120.0200517 532.790560
18853 18852 18854 1 121.3800518 83.010560
6150 18853 7638 1 109.50000 418.400000
6150 18853 11014 1 109.50000 418.400000
6150 18853 18852 1 103.70004 836.800000
7638 18853 11014 1 109.50000 418.400000
7638 18853 18852 1 103.70004 836.800000
11014 18853 18852 1 103.70004 836.800000
18852 18854 18855 1 119.8800511 375.723200
18852 18854 18856 1 120.0200517 532.790560
18855 18854 18856 1 119.8800511 375.723200
18854 18856 18857 1 119.8800511 375.723200
18854 18856 18858 1 120.0200517 532.790560
18857 18856 18858 1 119.8800511 375.723200
18856 18858 18859 1 119.8800511 375.723200
18856 18858 18860 1 120.0200517 532.790560
18859 18858 18860 1 119.8800511 375.723200
18851 18860 18858 1 120.0200517 532.790560
18851 18860 18861 1 119.8800511 375.723200
18858 18860 18861 1 119.8800511 375.723200
18862 18863 18864 1 119.8800511 375.723200
18862 18863 18872 1 119.8800511 375.723200
18864 18863 18872 1 120.0200517 532.790560
18863 18864 18865 1 121.3800518 83.010560
18863 18864 18866 1 120.0200517 532.790560
18865 18864 18866 1 121.3800518 83.010560
1717 18865 6926 1 109.50000 418.400000
1717 18865 11220 1 109.50000 418.400000
1717 18865 18864 1 103.70004 836.800000
6926 18865 11220 1 109.50000 418.400000
6926 18865 18864 1 103.70004 836.800000
11220 18865 18864 1 103.70004 836.800000
18864 18866 18867 1 119.8800511 375.723200
18864 18866 18868 1 120.0200517 532.790560
18867 18866 18868 1 119.8800511 375.723200
18866 18868 18869 1 119.8800511 375.723200
18866 18868 18870 1 120.0200517 532.790560
18869 18868 18870 1 119.8800511 375.723200
18868 18870 18871 1 119.8800511 375.723200
18868 18870 18872 1 120.0200517 532.790560
18871 18870 18872 1 119.8800511 375.723200
18863 18872 18870 1 120.0200517 532.790560
18863 18872 18873 1 119.8800511 375.723200
18870 18872 18873 1 119.8800511 375.723200
18874 18875 18876 1 119.8800511 375.723200
18874 18875 18884 1 119.8800511 375.723200
18876 18875 18884 1 120.0200517 532.790560
18875 18876 18877 1 121.3800518 83.010560
18875 18876 18878 1 120.0200517 532.790560
18877 18876 18878 1 121.3800518 83.010560
721 18877 4292 1 109.50000 418.400000
721 18877 11075 1 109.50000 418.400000
721 18877 18876 1 103.70004 836.800000
4292 18877 11075 1 109.50000 418.400000
4292 18877 18876 1 103.70004 836.800000
11075 18877 18876 1 103.70004 836.800000
18876 18878 18879 1 119.8800511 375.723200
18876 18878 18880 1 120.0200517 532.790560
18879 18878 18880 1 119.8800511 375.723200
18878 18880 18881 1 119.8800511 375.723200
18878 18880 18882 1 120.0200517 532.790560
18881 18880 18882 1 119.8800511 375.723200
18880 18882 18883 1 119.8800511 375.723200
18880 18882 18884 1 120.0200517 532.790560
18883 18882 18884 1 119.8800511 375.723200
18875 18884 18882 1 120.0200517 532.790560
18875 18884 18885 1 119.8800511 375.723200
18882 18884 18885 1 119.8800511 375.723200
18886 18887 18888 1 119.8800511 375.723200
18886 18887 18896 1 119.8800511 375.723200
18888 18887 18896 1 120.0200517 532.790560
18887 18888 18889 1 121.3800518 83.010560
18887 18888 18890 1 120.0200517 532.790560
18889 18888 18890 1 121.3800518 83.010560
1685 18889 6005 1 109.50000 418.400000
1685 18889 6006 1 109.50000 418.400000
1685 18889 18888 1 103.70004 836.800000
6005 18889 6006 1 109.50000 418.400000
6005 18889 18888 1 103.70004 836.800000
6006 18889 18888 1 103.70004 836.800000
18888 18890 18891 1 119.8800511 375.723200
18888 18890 18892 1 120.0200517 532.790560
18891 18890 18892 1 119.8800511 375.723200
18890 18892 18893 1 119.8800511 375.723200
18890 18892 18894 1 120.0200517 532.790560
18893 18892 18894 1 119.8800511 375.723200
18892 18894 18895 1 119.8800511 375.723200
18892 18894 18896 1 120.0200517 532.790560
18895 18894 18896 1 119.8800511 375.723200
18887 18896 18894 1 120.0200517 532.790560
18887 18896 18897 1 119.8800511 375.723200
18894 18896 18897 1 119.8800511 375.723200
18898 18899 18900 1 119.8800511 375.723200
18898 18899 18908 1 119.8800511 375.723200
18900 18899 18908 1 120.0200517 532.790560
18899 18900 18901 1 121.3800518 83.010560
18899 18900 18902 1 120.0200517 532.790560
18901 18900 18902 1 121.3800518 83.010560
480 18901 3500 1 109.50000 418.400000
480 18901 4167 1 109.50000 418.400000
480 18901 18900 1 103.70004 836.800000
3500 18901 4167 1 109.50000 418.400000
3500 18901 18900 1 103.70004 836.800000
4167 18901 18900 1 103.70004 836.800000
18900 18902 18903 1 119.8800511 375.723200
18900 18902 18904 1 120.0200517 532.790560
18903 18902 18904 1 119.8800511 375.723200
18902 18904 18905 1 119.8800511 375.723200
18902 18904 18906 1 120.0200517 532.790560
18905 18904 18906 1 119.8800511 375.723200
18904 18906 18907 1 119.8800511 375.723200
18904 18906 18908 1 120.0200517 532.790560
18907 18906 18908 1 119.8800511 375.723200
18899 18908 18906 1 120.0200517 532.790560
18899 18908 18909 1 119.8800511 375.723200
18906 18908 18909 1 119.8800511 375.723200
18910 18911 18912 1 119.8800511 375.723200
18910 18911 18920 1 119.8800511 375.723200
18912 18911 18920 1 120.0200517 532.790560
18911 18912 18913 1 121.3800518 83.010560
18911 18912 18914 1 120.0200517 532.790560
18913 18912 18914 1 121.3800518 83.010560
205 18913 207 1 109.50000 418.400000
205 18913 4963 1 109.50000 418.400000
205 18913 18912 1 103.70004 836.800000
207 18913 4963 1 109.50000 418.400000
207 18913 18912 1 103.70004 836.800000
4963 18913 18912 1 103.70004 836.800000
18912 18914 18915 1 119.8800511 375.723200
18912 18914 18916 1 120.0200517 532.790560
18915 18914 18916 1 119.8800511 375.723200
18914 18916 18917 1 119.8800511 375.723200
18914 18916 18918 1 120.0200517 532.790560
18917 18916 18918 1 119.8800511 375.723200
18916 18918 18919 1 119.8800511 375.723200
18916 18918 18920 1 120.0200517 532.790560
18919 18918 18920 1 119.8800511 375.723200
18911 18920 18918 1 120.0200517 532.790560
18911 18920 18921 1 119.8800511 375.723200
18918 18920 18921 1 119.8800511 375.723200
18922 18923 18924 1 119.8800511 375.723200
18922 18923 18932 1 119.8800511 375.723200
18924 18923 18932 1 120.0200517 532.790560
18923 18924 18925 1 121.3800518 83.010560
18923 18924 18926 1 120.0200517 532.790560
18925 18924 18926 1 121.3800518 83.010560
6440 18925 6664 1 109.50000 418.400000
6440 18925 11197 1 109.50000 418.400000
6440 18925 18924 1 103.70004 836.800000
6664 18925 11197 1 109.50000 418.400000
6664 18925 18924 1 103.70004 836.800000
11197 18925 18924 1 103.70004 836.800000
18924 18926 18927 1 119.8800511 375.723200
18924 18926 18928 1 120.0200517 532.790560
18927 18926 18928 1 119.8800511 375.723200
18926 18928 18929 1 119.8800511 375.723200
18926 18928 18930 1 120.0200517 532.790560
18929 18928 18930 1 119.8800511 375.723200
18928 18930 18931 1 119.8800511 375.723200
18928 18930 18932 1 120.0200517 532.790560
18931 18930 18932 1 119.8800511 375.723200
18923 18932 18930 1 120.0200517 532.790560
18923 18932 18933 1 119.8800511 375.723200
18930 18932 18933 1 119.8800511 375.723200
18934 18935 18936 1 119.8800511 375.723200
18934 18935 18944 1 119.8800511 375.723200
18936 18935 18944 1 120.0200517 532.790560
18935 18936 18937 1 121.3800518 83.010560
18935 18936 18938 1 120.0200517 532.790560
18937 18936 18938 1 121.3800518 83.010560
8012 18937 8013 1 109.50000 418.400000
8012 18937 11226 1 109.50000 418.400000
8012 18937 18936 1 103.70004 836.800000
8013 18937 11226 1 109.50000 418.400000
8013 18937 18936 1 103.70004 836.800000
11226 18937 18936 1 103.70004 836.800000
18936 18938 18939 1 119.8800511 375.723200
18936 18938 18940 1 120.0200517 532.790560
18939 18938 18940 1 119.8800511 375.723200
18938 18940 18941 1 119.8800511 375.723200
18938 18940 18942 1 120.0200517 532.790560
18941 18940 18942 1 119.8800511 375.723200
18940 18942 18943 1 119.8800511 375.723200
18940 18942 18944 1 120.0200517 532.790560
18943 18942 18944 1 119.8800511 375.723200
18935 18944 18942 1 120.0200517 532.790560
18935 18944 18945 1 119.8800511 375.723200
18942 18944 18945 1 119.8800511 375.723200
18946 18947 18948 1 119.8800511 375.723200
18946 18947 18956 1 119.8800511 375.723200
18948 18947 18956 1 120.0200517 532.790560
18947 18948 18949 1 121.3800518 83.010560
18947 18948 18950 1 120.0200517 532.790560
18949 18948 18950 1 121.3800518 83.010560
1118 18949 3642 1 109.50000 418.400000
1118 18949 3643 1 109.50000 418.400000
1118 18949 18948 1 103.70004 836.800000
3642 18949 3643 1 109.50000 418.400000
3642 18949 18948 1 103.70004 836.800000
3643 18949 18948 1 103.70004 836.800000
18948 18950 18951 1 119.8800511 375.723200
18948 18950 18952 1 120.0200517 532.790560
18951 18950 18952 1 119.8800511 375.723200
18950 18952 18953 1 119.8800511 375.723200
18950 18952 18954 1 120.0200517 532.790560
18953 18952 18954 1 119.8800511 375.723200
18952 18954 18955 1 119.8800511 375.723200
18952 18954 18956 1 120.0200517 532.790560
18955 18954 18956 1 119.8800511 375.723200
18947 18956 18954 1 120.0200517 532.790560
18947 18956 18957 1 119.8800511 375.723200
18954 18956 18957 1 119.8800511 375.723200
18958 18959 18960 1 119.8800511 375.723200
18958 18959 18968 1 119.8800511 375.723200
18960 18959 18968 1 120.0200517 532.790560
18959 18960 18961 1 121.3800518 83.010560
18959 18960 18962 1 120.0200517 532.790560
18961 18960 18962 1 121.3800518 83.010560
4554 18961 6276 1 109.50000 418.400000
4554 18961 6277 1 109.50000 418.400000
4554 18961 18960 1 103.70004 836.800000
6276 18961 6277 1 109.50000 418.400000
6276 18961 18960 1 103.70004 836.800000
6277 18961 18960 1 103.70004 836.800000
18960 18962 18963 1 119.8800511 375.723200
18960 18962 18964 1 120.0200517 532.790560
18963 18962 18964 1 119.8800511 375.723200
18962 18964 18965 1 119.8800511 375.723200
18962 18964 18966 1 120.0200517 532.790560
18965 18964 18966 1 119.8800511 375.723200
18964 18966 18967 1 119.8800511 375.723200
18964 18966 18968 1 120.0200517 532.790560
18967 18966 18968 1 119.8800511 375.723200
18959 18968 18966 1 120.0200517 532.790560
18959 18968 18969 1 119.8800511 375.723200
18966 18968 18969 1 119.8800511 375.723200
18970 18971 18972 1 119.8800511 375.723200
18970 18971 18980 1 119.8800511 375.723200
18972 18971 18980 1 120.0200517 532.790560
18971 18972 18973 1 121.3800518 83.010560
18971 18972 18974 1 120.0200517 532.790560
18973 18972 18974 1 121.3800518 83.010560
801 18973 3338 1 109.50000 418.400000
801 18973 3339 1 109.50000 418.400000
801 18973 18972 1 103.70004 836.800000
3338 18973 3339 1 109.50000 418.400000
3338 18973 18972 1 103.70004 836.800000
3339 18973 18972 1 103.70004 836.800000
18972 18974 18975 1 119.8800511 375.723200
18972 18974 18976 1 120.0200517 532.790560
18975 18974 18976 1 119.8800511 375.723200
18974 18976 18977 1 119.8800511 375.723200
18974 18976 18978 1 120.0200517 532.790560
18977 18976 18978 1 119.8800511 375.723200
18976 18978 18979 1 119.8800511 375.723200
18976 18978 18980 1 120.0200517 532.790560
18979 18978 18980 1 119.8800511 375.723200
18971 18980 18978 1 120.0200517 532.790560
18971 18980 18981 1 119.8800511 375.723200
18978 18980 18981 1 119.8800511 375.723200
18982 18983 18984 1 119.8800511 375.723200
18982 18983 18992 1 119.8800511 375.723200
18984 18983 18992 1 120.0200517 532.790560
18983 18984 18985 1 121.3800518 83.010560
18983 18984 18986 1 120.0200517 532.790560
18985 18984 18986 1 121.3800518 83.010560
2604 18985 2605 1 109.50000 418.400000
2604 18985 2991 1 109.50000 418.400000
2604 18985 18984 1 103.70004 836.800000
2605 18985 2991 1 109.50000 418.400000
2605 18985 18984 1 103.70004 836.800000
2991 18985 18984 1 103.70004 836.800000
18984 18986 18987 1 119.8800511 375.723200
18984 18986 18988 1 120.0200517 532.790560
18987 18986 18988 1 119.8800511 375.723200
18986 18988 18989 1 119.8800511 375.723200
18986 18988 18990 1 120.0200517 532.790560
18989 18988 18990 1 119.8800511 375.723200
18988 18990 18991 1 119.8800511 375.723200
18988 18990 18992 1 120.0200517 532.790560
18991 18990 18992 1 119.8800511 375.723200
18983 18992 18990 1 120.0200517 532.790560
18983 18992 18993 1 119.8800511 375.723200
18990 18992 18993 1 119.8800511 375.723200
18994 18995 18996 1 119.8800511 375.723200
18994 18995 19004 1 119.8800511 375.723200
18996 18995 19004 1 120.0200517 532.790560
18995 18996 18997 1 121.3800518 83.010560
18995 18996 18998 1 120.0200517 532.790560
18997 18996 18998 1 121.3800518 83.010560
6836 18997 8237 1 109.50000 418.400000
6836 18997 8908 1 109.50000 418.400000
6836 18997 18996 1 103.70004 836.800000
8237 18997 8908 1 109.50000 418.400000
8237 18997 18996 1 103.70004 836.800000
8908 18997 18996 1 103.70004 836.800000
18996 18998 18999 1 119.8800511 375.723200
18996 18998 19000 1 120.0200517 532.790560
18999 18998 19000 1 119.8800511 375.723200
18998 19000 19001 1 119.8800511 375.723200
18998 19000 19002 1 120.0200517 532.790560
19001 19000 19002 1 119.8800511 375.723200
19000 19002 19003 1 119.8800511 375.723200
19000 19002 19004 1 120.0200517 532.790560
19003 19002 19004 1 119.8800511 375.723200
18995 19004 19002 1 120.0200517 532.790560
18995 19004 19005 1 119.8800511 375.723200
19002 19004 19005 1 119.8800511 375.723200
19006 19007 19008 1 119.8800511 375.723200
19006 19007 19016 1 119.8800511 375.723200
19008 19007 19016 1 120.0200517 532.790560
19007 19008 19009 1 121.3800518 83.010560
19007 19008 19010 1 120.0200517 532.790560
19009 19008 19010 1 121.3800518 83.010560
2455 19009 8091 1 109.50000 418.400000
2455 19009 9654 1 109.50000 418.400000
2455 19009 19008 1 103.70004 836.800000
8091 19009 9654 1 109.50000 418.400000
8091 19009 19008 1 103.70004 836.800000
9654 19009 19008 1 103.70004 836.800000
19008 19010 19011 1 119.8800511 375.723200
19008 19010 19012 1 120.0200517 532.790560
19011 19010 19012 1 119.8800511 375.723200
19010 19012 19013 1 119.8800511 375.723200
19010 19012 19014 1 120.0200517 532.790560
19013 19012 19014 1 119.8800511 375.723200
19012 19014 19015 1 119.8800511 375.723200
19012 19014 19016 1 120.0200517 532.790560
19015 19014 19016 1 119.8800511 375.723200
19007 19016 19014 1 120.0200517 532.790560
19007 19016 19017 1 119.8800511 375.723200
19014 19016 19017 1 119.8800511 375.723200
19018 19019 19020 1 119.8800511 375.723200
19018 19019 19028 1 119.8800511 375.723200
19020 19019 19028 1 120.0200517 532.790560
19019 19020 19021 1 121.3800518 83.010560
19019 19020 19022 1 120.0200517 532.790560
19021 19020 19022 1 121.3800518 83.010560
9903 19021 9904 1 109.50000 418.400000
9903 19021 9905 1 109.50000 418.400000
9903 19021 19020 1 103.70004 836.800000
9904 19021 9905 1 109.50000 418.400000
9904 19021 19020 1 103.70004 836.800000
9905 19021 19020 1 103.70004 836.800000
19020 19022 19023 1 119.8800511 375.723200
19020 19022 19024 1 120.0200517 532.790560
19023 19022 19024 1 119.8800511 375.723200
19022 19024 19025 1 119.8800511 375.723200
19022 19024 19026 1 120.0200517 532.790560
19025 19024 19026 1 119.8800511 375.723200
19024 19026 19027 1 119.8800511 375.723200
19024 19026 19028 1 120.0200517 532.790560
19027 19026 19028 1 119.8800511 375.723200
19019 19028 19026 1 120.0200517 532.790560
19019 19028 19029 1 119.8800511 375.723200
19026 19028 19029 1 119.8800511 375.723200
19030 19031 19032 1 119.8800511 375.723200
19030 19031 19040 1 119.8800511 375.723200
19032 19031 19040 1 120.0200517 532.790560
19031 19032 19033 1 121.3800518 83.010560
19031 19032 19034 1 120.0200517 532.790560
19033 19032 19034 1 121.3800518 83.010560
4870 19033 4871 1 109.50000 418.400000
4870 19033 11163 1 109.50000 418.400000
4870 19033 19032 1 103.70004 836.800000
4871 19033 11163 1 109.50000 418.400000
4871 19033 19032 1 103.70004 836.800000
11163 19033 19032 1 103.70004 836.800000
19032 19034 19035 1 119.8800511 375.723200
19032 19034 19036 1 120.0200517 532.790560
19035 19034 19036 1 119.8800511 375.723200
19034 19036 19037 1 119.8800511 375.723200
19034 19036 19038 1 120.0200517 532.790560
19037 19036 19038 1 119.8800511 375.723200
19036 19038 19039 1 119.8800511 375.723200
19036 19038 19040 1 120.0200517 532.790560
19039 19038 19040 1 119.8800511 375.723200
19031 19040 19038 1 120.0200517 532.790560
19031 19040 19041 1 119.8800511 375.723200
19038 19040 19041 1 119.8800511 375.723200
19042 19043 19044 1 119.8800511 375.723200
19042 19043 19052 1 119.8800511 375.723200
19044 19043 19052 1 120.0200517 532.790560
19043 19044 19045 1 121.3800518 83.010560
19043 19044 19046 1 120.0200517 532.790560
19045 19044 19046 1 121.3800518 83.010560
5462 19045 9563 1 109.50000 418.400000
5462 19045 11140 1 109.50000 418.400000
5462 19045 19044 1 103.70004 836.800000
9563 19045 11140 1 109.50000 418.400000
9563 19045 19044 1 103.70004 836.800000
11140 19045 19044 1 103.70004 836.800000
19044 19046 19047 1 119.8800511 375.723200
19044 19046 19048 1 120.0200517 532.790560
19047 19046 19048 1 119.8800511 375.723200
19046 19048 19049 1 119.8800511 375.723200
19046 19048 19050 1 120.0200517 532.790560
19049 19048 19050 1 119.8800511 375.723200
19048 19050 19051 1 119.8800511 375.723200
19048 19050 19052 1 120.0200517 532.790560
19051 19050 19052 1 119.8800511 375.723200
19043 19052 19050 1 120.0200517 532.790560
19043 19052 19053 1 119.8800511 375.723200
19050 19052 19053 1 119.8800511 375.723200
19054 19055 19056 1 119.8800511 375.723200
19054 19055 19064 1 119.8800511 375.723200
19056 19055 19064 1 120.0200517 532.790560
19055 19056 19057 1 121.3800518 83.010560
19055 19056 19058 1 120.0200517 532.790560
19057 19056 19058 1 121.3800518 83.010560
5288 19057 7485 1 109.50000 418.400000
5288 19057 7486 1 109.50000 418.400000
5288 19057 19056 1 103.70004 836.800000
7485 19057 7486 1 109.50000 418.400000
7485 19057 19056 1 103.70004 836.800000
7486 19057 19056 1 103.70004 836.800000
19056 19058 19059 1 119.8800511 375.723200
19056 19058 19060 1 120.0200517 532.790560
19059 19058 19060 1 119.8800511 375.723200
19058 19060 19061 1 119.8800511 375.723200
19058 19060 19062 1 120.0200517 532.790560
19061 19060 19062 1 119.8800511 375.723200
19060 19062 19063 1 119.8800511 375.723200
19060 19062 19064 1 120.0200517 532.790560
19063 19062 19064 1 119.8800511 375.723200
19055 19064 19062 1 120.0200517 532.790560
19055 19064 19065 1 119.8800511 375.723200
19062 19064 19065 1 119.8800511 375.723200
19066 19067 19068 1 119.8800511 375.723200
19066 19067 19076 1 119.8800511 375.723200
19068 19067 19076 1 120.0200517 532.790560
19067 19068 19069 1 121.3800518 83.010560
19067 19068 19070 1 120.0200517 532.790560
19069 19068 19070 1 121.3800518 83.010560
3479 19069 7341 1 109.50000 418.400000
3479 19069 7342 1 109.50000 418.400000
3479 19069 19068 1 103.70004 836.800000
7341 19069 7342 1 109.50000 418.400000
7341 19069 19068 1 103.70004 836.800000
7342 19069 19068 1 103.70004 836.800000
19068 19070 19071 1 119.8800511 375.723200
19068 19070 19072 1 120.0200517 532.790560
19071 19070 19072 1 119.8800511 375.723200
19070 19072 19073 1 119.8800511 375.723200
19070 19072 19074 1 120.0200517 532.790560
19073 19072 19074 1 119.8800511 375.723200
19072 19074 19075 1 119.8800511 375.723200
19072 19074 19076 1 120.0200517 532.790560
19075 19074 19076 1 119.8800511 375.723200
19067 19076 19074 1 120.0200517 532.790560
19067 19076 19077 1 119.8800511 375.723200
19074 19076 19077 1 119.8800511 375.723200
19078 19079 19080 1 119.8800511 375.723200
19078 19079 19088 1 119.8800511 375.723200
19080 19079 19088 1 120.0200517 532.790560
19079 19080 19081 1 121.3800518 83.010560
19079 19080 19082 1 120.0200517 532.790560
19081 19080 19082 1 121.3800518 83.010560
1027 19081 1028 1 109.50000 418.400000
1027 19081 1029 1 109.50000 418.400000
1027 19081 19080 1 103.70004 836.800000
1028 19081 1029 1 109.50000 418.400000
1028 19081 19080 1 103.70004 836.800000
1029 19081 19080 1 103.70004 836.800000
19080 19082 19083 1 119.8800511 375.723200
19080 19082 19084 1 120.0200517 532.790560
19083 19082 19084 1 119.8800511 375.723200
19082 19084 19085 1 119.8800511 375.723200
19082 19084 19086 1 120.0200517 532.790560
19085 19084 19086 1 119.8800511 375.723200
19084 19086 19087 1 119.8800511 375.723200
19084 19086 19088 1 120.0200517 532.790560
19087 19086 19088 1 119.8800511 375.723200
19079 19088 19086 1 120.0200517 532.790560
19079 19088 19089 1 119.8800511 375.723200
19086 19088 19089 1 119.8800511 375.723200
19090 19091 19092 1 119.8800511 375.723200
19090 19091 19100 1 119.8800511 375.723200
19092 19091 19100 1 120.0200517 532.790560
19091 19092 19093 1 121.3800518 83.010560
19091 19092 19094 1 120.0200517 532.790560
19093 19092 19094 1 121.3800518 83.010560
9029 19093 10046 1 109.50000 418.400000
9029 19093 10047 1 109.50000 418.400000
9029 19093 19092 1 103.70004 836.800000
10046 19093 10047 1 109.50000 418.400000
10046 19093 19092 1 103.70004 836.800000
10047 19093 19092 1 103.70004 836.800000
19092 19094 19095 1 119.8800511 375.723200
19092 19094 19096 1 120.0200517 532.790560
19095 19094 19096 1 119.8800511 375.723200
19094 19096 19097 1 119.8800511 375.723200
19094 19096 19098 1 120.0200517 532.790560
19097 19096 19098 1 119.8800511 375.723200
19096 19098 19099 1 119.8800511 375.723200
19096 19098 19100 1 120.0200517 532.790560
19099 19098 19100 1 119.8800511 375.723200
19091 19100 19098 1 120.0200517 532.790560
19091 19100 19101 1 119.8800511 375.723200
19098 19100 19101 1 119.8800511 375.723200
19102 19103 19104 1 119.8800511 375.723200
19102 19103 19112 1 119.8800511 375.723200
19104 19103 19112 1 120.0200517 532.790560
19103 19104 19105 1 121.3800518 83.010560
19103 19104 19106 1 120.0200517 532.790560
19105 19104 19106 1 121.3800518 83.010560
9903 19105 10158 1 109.50000 418.400000
9903 19105 10413 1 109.50000 418.400000
9903 19105 19104 1 103.70004 836.800000
10158 19105 10413 1 109.50000 418.400000
10158 19105 19104 1 103.70004 836.800000
10413 19105 19104 1 103.70004 836.800000
19104 19106 19107 1 119.8800511 375.723200
19104 19106 19108 1 120.0200517 532.790560
19107 19106 19108 1 119.8800511 375.723200
19106 19108 19109 1 119.8800511 375.723200
19106 19108 19110 1 120.0200517 532.790560
19109 19108 19110 1 119.8800511 375.723200
19108 19110 19111 1 119.8800511 375.723200
19108 19110 19112 1 120.0200517 532.790560
19111 19110 19112 1 119.8800511 375.723200
19103 19112 19110 1 120.0200517 532.790560
19103 19112 19113 1 119.8800511 375.723200
19110 19112 19113 1 119.8800511 375.723200
19114 19115 19116 1 119.8800511 375.723200
19114 19115 19124 1 119.8800511 375.723200
19116 19115 19124 1 120.0200517 532.790560
19115 19116 19117 1 121.3800518 83.010560
19115 19116 19118 1 120.0200517 532.790560
19117 19116 19118 1 121.3800518 83.010560
1958 19117 6823 1 109.50000 418.400000
1958 19117 6824 1 109.50000 418.400000
1958 19117 19116 1 103.70004 836.800000
6823 19117 6824 1 109.50000 418.400000
6823 19117 19116 1 103.70004 836.800000
6824 19117 19116 1 103.70004 836.800000
19116 19118 19119 1 119.8800511 375.723200
19116 19118 19120 1 120.0200517 532.790560
19119 19118 19120 1 119.8800511 375.723200
19118 19120 19121 1 119.8800511 375.723200
19118 19120 19122 1 120.0200517 532.790560
19121 19120 19122 1 119.8800511 375.723200
19120 19122 19123 1 119.8800511 375.723200
19120 19122 19124 1 120.0200517 532.790560
19123 19122 19124 1 119.8800511 375.723200
19115 19124 19122 1 120.0200517 532.790560
19115 19124 19125 1 119.8800511 375.723200
19122 19124 19125 1 119.8800511 375.723200
19126 19127 19128 1 119.8800511 375.723200
19126 19127 19136 1 119.8800511 375.723200
19128 19127 19136 1 120.0200517 532.790560
19127 19128 19129 1 121.3800518 83.010560
19127 19128 19130 1 120.0200517 532.790560
19129 19128 19130 1 121.3800518 83.010560
8815 19129 10457 1 109.50000 418.400000
8815 19129 10942 1 109.50000 418.400000
8815 19129 19128 1 103.70004 836.800000
10457 19129 10942 1 109.50000 418.400000
10457 19129 19128 1 103.70004 836.800000
10942 19129 19128 1 103.70004 836.800000
19128 19130 19131 1 119.8800511 375.723200
19128 19130 19132 1 120.0200517 532.790560
19131 19130 19132 1 119.8800511 375.723200
19130 19132 19133 1 119.8800511 375.723200
19130 19132 19134 1 120.0200517 532.790560
19133 19132 19134 1 119.8800511 375.723200
19132 19134 19135 1 119.8800511 375.723200
19132 19134 19136 1 120.0200517 532.790560
19135 19134 19136 1 119.8800511 375.723200
19127 19136 19134 1 120.0200517 532.790560
19127 19136 19137 1 119.8800511 375.723200
19134 19136 19137 1 119.8800511 375.723200
19138 19139 19140 1 119.8800511 375.723200
19138 19139 19148 1 119.8800511 375.723200
19140 19139 19148 1 120.0200517 532.790560
19139 19140 19141 1 121.3800518 83.010560
19139 19140 19142 1 120.0200517 532.790560
19141 19140 19142 1 121.3800518 83.010560
3570 19141 8709 1 109.50000 418.400000
3570 19141 9743 1 109.50000 418.400000
3570 19141 19140 1 103.70004 836.800000
8709 19141 9743 1 109.50000 418.400000
8709 19141 19140 1 103.70004 836.800000
9743 19141 19140 1 103.70004 836.800000
19140 19142 19143 1 119.8800511 375.723200
19140 19142 19144 1 120.0200517 532.790560
19143 19142 19144 1 119.8800511 375.723200
19142 19144 19145 1 119.8800511 375.723200
19142 19144 19146 1 120.0200517 532.790560
19145 19144 19146 1 119.8800511 375.723200
19144 19146 19147 1 119.8800511 375.723200
19144 19146 19148 1 120.0200517 532.790560
19147 19146 19148 1 119.8800511 375.723200
19139 19148 19146 1 120.0200517 532.790560
19139 19148 19149 1 119.8800511 375.723200
19146 19148 19149 1 119.8800511 375.723200
19150 19151 19152 1 119.8800511 375.723200
19150 19151 19160 1 119.8800511 375.723200
19152 19151 19160 1 120.0200517 532.790560
19151 19152 19153 1 121.3800518 83.010560
19151 19152 19154 1 120.0200517 532.790560
19153 19152 19154 1 121.3800518 83.010560
1922 19153 5841 1 109.50000 418.400000
1922 19153 6262 1 109.50000 418.400000
1922 19153 19152 1 103.70004 836.800000
5841 19153 6262 1 109.50000 418.400000
5841 19153 19152 1 103.70004 836.800000
6262 19153 19152 1 103.70004 836.800000
19152 19154 19155 1 119.8800511 375.723200
19152 19154 19156 1 120.0200517 532.790560
19155 19154 19156 1 119.8800511 375.723200
19154 19156 19157 1 119.8800511 375.723200
19154 19156 19158 1 120.0200517 532.790560
19157 19156 19158 1 119.8800511 375.723200
19156 19158 19159 1 119.8800511 375.723200
19156 19158 19160 1 120.0200517 532.790560
19159 19158 19160 1 119.8800511 375.723200
19151 19160 19158 1 120.0200517 532.790560
19151 19160 19161 1 119.8800511 375.723200
19158 19160 19161 1 119.8800511 375.723200
19162 19163 19164 1 119.8800511 375.723200
19162 19163 19172 1 119.8800511 375.723200
19164 19163 19172 1 120.0200517 532.790560
19163 19164 19165 1 121.3800518 83.010560
19163 19164 19166 1 120.0200517 532.790560
19165 19164 19166 1 121.3800518 83.010560
4513 19165 6383 1 109.50000 418.400000
4513 19165 6384 1 109.50000 418.400000
4513 19165 19164 1 103.70004 836.800000
6383 19165 6384 1 109.50000 418.400000
6383 19165 19164 1 103.70004 836.800000
6384 19165 19164 1 103.70004 836.800000
19164 19166 19167 1 119.8800511 375.723200
19164 19166 19168 1 120.0200517 532.790560
19167 19166 19168 1 119.8800511 375.723200
19166 19168 19169 1 119.8800511 375.723200
19166 19168 19170 1 120.0200517 532.790560
19169 19168 19170 1 119.8800511 375.723200
19168 19170 19171 1 119.8800511 375.723200
19168 19170 19172 1 120.0200517 532.790560
19171 19170 19172 1 119.8800511 375.723200
19163 19172 19170 1 120.0200517 532.790560
19163 19172 19173 1 119.8800511 375.723200
19170 19172 19173 1 119.8800511 375.723200
19174 19175 19176 1 119.8800511 375.723200
19174 19175 19184 1 119.8800511 375.723200
19176 19175 19184 1 120.0200517 532.790560
19175 19176 19177 1 121.3800518 83.010560
19175 19176 19178 1 120.0200517 532.790560
19177 19176 19178 1 121.3800518 83.010560
601 19177 602 1 109.50000 418.400000
601 19177 603 1 109.50000 418.400000
601 19177 19176 1 103.70004 836.800000
602 19177 603 1 109.50000 418.400000
602 19177 19176 1 103.70004 836.800000
603 19177 19176 1 103.70004 836.800000
19176 19178 19179 1 119.8800511 375.723200
19176 19178 19180 1 120.0200517 532.790560
19179 19178 19180 1 119.8800511 375.723200
19178 19180 19181 1 119.8800511 375.723200
19178 19180 19182 1 120.0200517 532.790560
19181 19180 19182 1 119.8800511 375.723200
19180 19182 19183 1 119.8800511 375.723200
19180 19182 19184 1 120.0200517 532.790560
19183 19182 19184 1 119.8800511 375.723200
19175 19184 19182 1 120.0200517 532.790560
19175 19184 19185 1 119.8800511 375.723200
19182 19184 19185 1 119.8800511 375.723200
19186 19187 19188 1 119.8800511 375.723200
19186 19187 19196 1 119.8800511 375.723200
19188 19187 19196 1 120.0200517 532.790560
19187 19188 19189 1 121.3800518 83.010560
19187 19188 19190 1 120.0200517 532.790560
19189 19188 19190 1 121.3800518 83.010560
142 19189 696 1 109.50000 418.400000
142 19189 2304 1 109.50000 418.400000
142 19189 19188 1 103.70004 836.800000
696 19189 2304 1 109.50000 418.400000
696 19189 19188 1 103.70004 836.800000
2304 19189 19188 1 103.70004 836.800000
19188 19190 19191 1 119.8800511 375.723200
19188 19190 19192 1 120.0200517 532.790560
19191 19190 19192 1 119.8800511 375.723200
19190 19192 19193 1 119.8800511 375.723200
19190 19192 19194 1 120.0200517 532.790560
19193 19192 19194 1 119.8800511 375.723200
19192 19194 19195 1 119.8800511 375.723200
19192 19194 19196 1 120.0200517 532.790560
19195 19194 19196 1 119.8800511 375.723200
19187 19196 19194 1 120.0200517 532.790560
19187 19196 19197 1 119.8800511 375.723200
19194 19196 19197 1 119.8800511 375.723200
19198 19199 19200 1 119.8800511 375.723200
19198 19199 19208 1 119.8800511 375.723200
19200 19199 19208 1 120.0200517 532.790560
19199 19200 19201 1 121.3800518 83.010560
19199 19200 19202 1 120.0200517 532.790560
19201 19200 19202 1 121.3800518 83.010560
4041 19201 8961 1 109.50000 418.400000
4041 19201 10146 1 109.50000 418.400000
4041 19201 19200 1 103.70004 836.800000
8961 19201 10146 1 109.50000 418.400000
8961 19201 19200 1 103.70004 836.800000
10146 19201 19200 1 103.70004 836.800000
19200 19202 19203 1 119.8800511 375.723200
19200 19202 19204 1 120.0200517 532.790560
19203 19202 19204 1 119.8800511 375.723200
19202 19204 19205 1 119.8800511 375.723200
19202 19204 19206 1 120.0200517 532.790560
19205 19204 19206 1 119.8800511 375.723200
19204 19206 19207 1 119.8800511 375.723200
19204 19206 19208 1 120.0200517 532.790560
19207 19206 19208 1 119.8800511 375.723200
19199 19208 19206 1 120.0200517 532.790560
19199 19208 19209 1 119.8800511 375.723200
19206 19208 19209 1 119.8800511 375.723200
19210 19211 19212 1 119.8800511 375.723200
19210 19211 19220 1 119.8800511 375.723200
19212 19211 19220 1 120.0200517 532.790560
19211 19212 19213 1 121.3800518 83.010560
19211 19212 19214 1 120.0200517 532.790560
19213 19212 19214 1 121.3800518 83.010560
174 19213 6557 1 109.50000 418.400000
174 19213 6647 1 109.50000 418.400000
174 19213 19212 1 103.70004 836.800000
6557 19213 6647 1 109.50000 418.400000
6557 19213 19212 1 103.70004 836.800000
6647 19213 19212 1 103.70004 836.800000
19212 19214 19215 1 119.8800511 375.723200
19212 19214 19216 1 120.0200517 532.790560
19215 19214 19216 1 119.8800511 375.723200
19214 19216 19217 1 119.8800511 375.723200
19214 19216 19218 1 120.0200517 532.790560
19217 19216 19218 1 119.8800511 375.723200
19216 19218 19219 1 119.8800511 375.723200
19216 19218 19220 1 120.0200517 532.790560
19219 19218 19220 1 119.8800511 375.723200
19211 19220 19218 1 120.0200517 532.790560
19211 19220 19221 1 119.8800511 375.723200
19218 19220 19221 1 119.8800511 375.723200
19222 19223 19224 1 119.8800511 375.723200
19222 19223 19232 1 119.8800511 375.723200
19224 19223 19232 1 120.0200517 532.790560
19223 19224 19225 1 121.3800518 83.010560
19223 19224 19226 1 120.0200517 532.790560
19225 19224 19226 1 121.3800518 83.010560
4691 19225 5963 1 109.50000 418.400000
4691 19225 5965 1 109.50000 418.400000
4691 19225 19224 1 103.70004 836.800000
5963 19225 5965 1 109.50000 418.400000
5963 19225 19224 1 103.70004 836.800000
5965 19225 19224 1 103.70004 836.800000
19224 19226 19227 1 119.8800511 375.723200
19224 19226 19228 1 120.0200517 532.790560
19227 19226 19228 1 119.8800511 375.723200
19226 19228 19229 1 119.8800511 375.723200
19226 19228 19230 1 120.0200517 532.790560
19229 19228 19230 1 119.8800511 375.723200
19228 19230 19231 1 119.8800511 375.723200
19228 19230 19232 1 120.0200517 532.790560
19231 19230 19232 1 119.8800511 375.723200
19223 19232 19230 1 120.0200517 532.790560
19223 19232 19233 1 119.8800511 375.723200
19230 19232 19233 1 119.8800511 375.723200
19234 19235 19236 1 119.8800511 375.723200
19234 19235 19244 1 119.8800511 375.723200
19236 19235 19244 1 120.0200517 532.790560
19235 19236 19237 1 121.3800518 83.010560
19235 19236 19238 1 120.0200517 532.790560
19237 19236 19238 1 121.3800518 83.010560
5069 19237 7625 1 109.50000 418.400000
5069 19237 11152 1 109.50000 418.400000
5069 19237 19236 1 103.70004 836.800000
7625 19237 11152 1 109.50000 418.400000
7625 19237 19236 1 103.70004 836.800000
11152 19237 19236 1 103.70004 836.800000
19236 19238 19239 1 119.8800511 375.723200
19236 19238 19240 1 120.0200517 532.790560
19239 19238 19240 1 119.8800511 375.723200
19238 19240 19241 1 119.8800511 375.723200
19238 19240 19242 1 120.0200517 532.790560
19241 19240 19242 1 119.8800511 375.723200
19240 19242 19243 1 119.8800511 375.723200
19240 19242 19244 1 120.0200517 532.790560
19243 19242 19244 1 119.8800511 375.723200
19235 19244 19242 1 120.0200517 532.790560
19235 19244 19245 1 119.8800511 375.723200
19242 19244 19245 1 119.8800511 375.723200
19246 19247 19248 1 119.8800511 375.723200
19246 19247 19256 1 119.8800511 375.723200
19248 19247 19256 1 120.0200517 532.790560
19247 19248 19249 1 121.3800518 83.010560
19247 19248 19250 1 120.0200517 532.790560
19249 19248 19250 1 121.3800518 83.010560
556 19249 557 1 109.50000 418.400000
556 19249 558 1 109.50000 418.400000
556 19249 19248 1 103.70004 836.800000
557 19249 558 1 109.50000 418.400000
557 19249 19248 1 103.70004 836.800000
558 19249 19248 1 103.70004 836.800000
19248 19250 19251 1 119.8800511 375.723200
19248 19250 19252 1 120.0200517 532.790560
19251 19250 19252 1 119.8800511 375.723200
19250 19252 19253 1 119.8800511 375.723200
19250 19252 19254 1 120.0200517 532.790560
19253 19252 19254 1 119.8800511 375.723200
19252 19254 19255 1 119.8800511 375.723200
19252 19254 19256 1 120.0200517 532.790560
19255 19254 19256 1 119.8800511 375.723200
19247 19256 19254 1 120.0200517 532.790560
19247 19256 19257 1 119.8800511 375.723200
19254 19256 19257 1 119.8800511 375.723200
19258 19259 19260 1 119.8800511 375.723200
19258 19259 19268 1 119.8800511 375.723200
19260 19259 19268 1 120.0200517 532.790560
19259 19260 19261 1 121.3800518 83.010560
19259 19260 19262 1 120.0200517 532.790560
19261 19260 19262 1 121.3800518 83.010560
1237 19261 1238 1 109.50000 418.400000
1237 19261 1239 1 109.50000 418.400000
1237 19261 19260 1 103.70004 836.800000
1238 19261 1239 1 109.50000 418.400000
1238 19261 19260 1 103.70004 836.800000
1239 19261 19260 1 103.70004 836.800000
19260 19262 19263 1 119.8800511 375.723200
19260 19262 19264 1 120.0200517 532.790560
19263 19262 19264 1 119.8800511 375.723200
19262 19264 19265 1 119.8800511 375.723200
19262 19264 19266 1 120.0200517 532.790560
19265 19264 19266 1 119.8800511 375.723200
19264 19266 19267 1 119.8800511 375.723200
19264 19266 19268 1 120.0200517 532.790560
19267 19266 19268 1 119.8800511 375.723200
19259 19268 19266 1 120.0200517 532.790560
19259 19268 19269 1 119.8800511 375.723200
19266 19268 19269 1 119.8800511 375.723200
19270 19271 19272 1 119.8800511 375.723200
19270 19271 19280 1 119.8800511 375.723200
19272 19271 19280 1 120.0200517 532.790560
19271 19272 19273 1 121.3800518 83.010560
19271 19272 19274 1 120.0200517 532.790560
19273 19272 19274 1 121.3800518 83.010560
1450 19273 6725 1 109.50000 418.400000
1450 19273 11153 1 109.50000 418.400000
1450 19273 19272 1 103.70004 836.800000
6725 19273 11153 1 109.50000 418.400000
6725 19273 19272 1 103.70004 836.800000
11153 19273 19272 1 103.70004 836.800000
19272 19274 19275 1 119.8800511 375.723200
19272 19274 19276 1 120.0200517 532.790560
19275 19274 19276 1 119.8800511 375.723200
19274 19276 19277 1 119.8800511 375.723200
19274 19276 19278 1 120.0200517 532.790560
19277 19276 19278 1 119.8800511 375.723200
19276 19278 19279 1 119.8800511 375.723200
19276 19278 19280 1 120.0200517 532.790560
19279 19278 19280 1 119.8800511 375.723200
19271 19280 19278 1 120.0200517 532.790560
19271 19280 19281 1 119.8800511 375.723200
19278 19280 19281 1 119.8800511 375.723200
19282 19283 19284 1 119.8800511 375.723200
19282 19283 19292 1 119.8800511 375.723200
19284 19283 19292 1 120.0200517 532.790560
19283 19284 19285 1 121.3800518 83.010560
19283 19284 19286 1 120.0200517 532.790560
19285 19284 19286 1 121.3800518 83.010560
2150 19285 3626 1 109.50000 418.400000
2150 19285 11110 1 109.50000 418.400000
2150 19285 19284 1 103.70004 836.800000
3626 19285 11110 1 109.50000 418.400000
3626 19285 19284 1 103.70004 836.800000
11110 19285 19284 1 103.70004 836.800000
19284 19286 19287 1 119.8800511 375.723200
19284 19286 19288 1 120.0200517 532.790560
19287 19286 19288 1 119.8800511 375.723200
19286 19288 19289 1 119.8800511 375.723200
19286 19288 19290 1 120.0200517 532.790560
19289 19288 19290 1 119.8800511 375.723200
19288 19290 19291 1 119.8800511 375.723200
19288 19290 19292 1 120.0200517 532.790560
19291 19290 19292 1 119.8800511 375.723200
19283 19292 19290 1 120.0200517 532.790560
19283 19292 19293 1 119.8800511 375.723200
19290 19292 19293 1 119.8800511 375.723200
19294 19295 19296 1 119.8800511 375.723200
19294 19295 19304 1 119.8800511 375.723200
19296 19295 19304 1 120.0200517 532.790560
19295 19296 19297 1 121.3800518 83.010560
19295 19296 19298 1 120.0200517 532.790560
19297 19296 19298 1 121.3800518 83.010560
9276 19297 9992 1 109.50000 418.400000
9276 19297 10866 1 109.50000 418.400000
9276 19297 19296 1 103.70004 836.800000
9992 19297 10866 1 109.50000 418.400000
9992 19297 19296 1 103.70004 836.800000
10866 19297 19296 1 103.70004 836.800000
19296 19298 19299 1 119.8800511 375.723200
19296 19298 19300 1 120.0200517 532.790560
19299 19298 19300 1 119.8800511 375.723200
19298 19300 19301 1 119.8800511 375.723200
19298 19300 19302 1 120.0200517 532.790560
19301 19300 19302 1 119.8800511 375.723200
19300 19302 19303 1 119.8800511 375.723200
19300 19302 19304 1 120.0200517 532.790560
19303 19302 19304 1 119.8800511 375.723200
19295 19304 19302 1 120.0200517 532.790560
19295 19304 19305 1 119.8800511 375.723200
19302 19304 19305 1 119.8800511 375.723200
19306 19307 19308 1 119.8800511 375.723200
19306 19307 19316 1 119.8800511 375.723200
19308 19307 19316 1 120.0200517 532.790560
19307 19308 19309 1 121.3800518 83.010560
19307 19308 19310 1 120.0200517 532.790560
19309 19308 19310 1 121.3800518 83.010560
9088 19309 9089 1 109.50000 418.400000
9088 19309 9090 1 109.50000 418.400000
9088 19309 19308 1 103.70004 836.800000
9089 19309 9090 1 109.50000 418.400000
9089 19309 19308 1 103.70004 836.800000
9090 19309 19308 1 103.70004 836.800000
19308 19310 19311 1 119.8800511 375.723200
19308 19310 19312 1 120.0200517 532.790560
19311 19310 19312 1 119.8800511 375.723200
19310 19312 19313 1 119.8800511 375.723200
19310 19312 19314 1 120.0200517 532.790560
19313 19312 19314 1 119.8800511 375.723200
19312 19314 19315 1 119.8800511 375.723200
19312 19314 19316 1 120.0200517 532.790560
19315 19314 19316 1 119.8800511 375.723200
19307 19316 19314 1 120.0200517 532.790560
19307 19316 19317 1 119.8800511 375.723200
19314 19316 19317 1 119.8800511 375.723200
19318 19319 19320 1 119.8800511 375.723200
19318 19319 19328 1 119.8800511 375.723200
19320 19319 19328 1 120.0200517 532.790560
19319 19320 19321 1 121.3800518 83.010560
19319 19320 19322 1 120.0200517 532.790560
19321 19320 19322 1 121.3800518 83.010560
4733 19321 9971 1 109.50000 418.400000
4733 19321 10036 1 109.50000 418.400000
4733 19321 19320 1 103.70004 836.800000
9971 19321 10036 1 109.50000 418.400000
9971 19321 19320 1 103.70004 836.800000
10036 19321 19320 1 103.70004 836.800000
19320 19322 19323 1 119.8800511 375.723200
19320 19322 19324 1 120.0200517 532.790560
19323 19322 19324 1 119.8800511 375.723200
19322 19324 19325 1 119.8800511 375.723200
19322 19324 19326 1 120.0200517 532.790560
19325 19324 19326 1 119.8800511 375.723200
19324 19326 19327 1 119.8800511 375.723200
19324 19326 19328 1 120.0200517 532.790560
19327 19326 19328 1 119.8800511 375.723200
19319 19328 19326 1 120.0200517 532.790560
19319 19328 19329 1 119.8800511 375.723200
19326 19328 19329 1 119.8800511 375.723200
19330 19331 19332 1 119.8800511 375.723200
19330 19331 19340 1 119.8800511 375.723200
19332 19331 19340 1 120.0200517 532.790560
19331 19332 19333 1 121.3800518 83.010560
19331 19332 19334 1 120.0200517 532.790560
19333 19332 19334 1 121.3800518 83.010560
3677 19333 6601 1 109.50000 418.400000
3677 19333 6868 1 109.50000 418.400000
3677 19333 19332 1 103.70004 836.800000
6601 19333 6868 1 109.50000 418.400000
6601 19333 19332 1 103.70004 836.800000
6868 19333 19332 1 103.70004 836.800000
19332 19334 19335 1 119.8800511 375.723200
19332 19334 19336 1 120.0200517 532.790560
19335 19334 19336 1 119.8800511 375.723200
19334 19336 19337 1 119.8800511 375.723200
19334 19336 19338 1 120.0200517 532.790560
19337 19336 19338 1 119.8800511 375.723200
19336 19338 19339 1 119.8800511 375.723200
19336 19338 19340 1 120.0200517 532.790560
19339 19338 19340 1 119.8800511 375.723200
19331 19340 19338 1 120.0200517 532.790560
19331 19340 19341 1 119.8800511 375.723200
19338 19340 19341 1 119.8800511 375.723200
19342 19343 19344 1 119.8800511 375.723200
19342 19343 19352 1 119.8800511 375.723200
19344 19343 19352 1 120.0200517 532.790560
19343 19344 19345 1 121.3800518 83.010560
19343 19344 19346 1 120.0200517 532.790560
19345 19344 19346 1 121.3800518 83.010560
5105 19345 5751 1 109.50000 418.400000
5105 19345 5752 1 109.50000 418.400000
5105 19345 19344 1 103.70004 836.800000
5751 19345 5752 1 109.50000 418.400000
5751 19345 19344 1 103.70004 836.800000
5752 19345 19344 1 103.70004 836.800000
19344 19346 19347 1 119.8800511 375.723200
19344 19346 19348 1 120.0200517 532.790560
19347 19346 19348 1 119.8800511 375.723200
19346 19348 19349 1 119.8800511 375.723200
19346 19348 19350 1 120.0200517 532.790560
19349 19348 19350 1 119.8800511 375.723200
19348 19350 19351 1 119.8800511 375.723200
19348 19350 19352 1 120.0200517 532.790560
19351 19350 19352 1 119.8800511 375.723200
19343 19352 19350 1 120.0200517 532.790560
19343 19352 19353 1 119.8800511 375.723200
19350 19352 19353 1 119.8800511 375.723200
19354 19355 19356 1 119.8800511 375.723200
19354 19355 19364 1 119.8800511 375.723200
19356 19355 19364 1 120.0200517 532.790560
19355 19356 19357 1 121.3800518 83.010560
19355 19356 19358 1 120.0200517 532.790560
19357 19356 19358 1 121.3800518 83.010560
4607 19357 4608 1 109.50000 418.400000
4607 19357 8045 1 109.50000 418.400000
4607 19357 19356 1 103.70004 836.800000
4608 19357 8045 1 109.50000 418.400000
4608 19357 19356 1 103.70004 836.800000
8045 19357 19356 1 103.70004 836.800000
19356 19358 19359 1 119.8800511 375.723200
19356 19358 19360 1 120.0200517 532.790560
19359 19358 19360 1 119.8800511 375.723200
19358 19360 19361 1 119.8800511 375.723200
19358 19360 19362 1 120.0200517 532.790560
19361 19360 19362 1 119.8800511 375.723200
19360 19362 19363 1 119.8800511 375.723200
19360 19362 19364 1 120.0200517 532.790560
19363 19362 19364 1 119.8800511 375.723200
19355 19364 19362 1 120.0200517 532.790560
19355 19364 19365 1 119.8800511 375.723200
19362 19364 19365 1 119.8800511 375.723200
19366 19367 19368 1 119.8800511 375.723200
19366 19367 19376 1 119.8800511 375.723200
19368 19367 19376 1 120.0200517 532.790560
19367 19368 19369 1 121.3800518 83.010560
19367 19368 19370 1 120.0200517 532.790560
19369 19368 19370 1 121.3800518 83.010560
6314 19369 6615 1 109.50000 418.400000
6314 19369 8111 1 109.50000 418.400000
6314 19369 19368 1 103.70004 836.800000
6615 19369 8111 1 109.50000 418.400000
6615 19369 19368 1 103.70004 836.800000
8111 19369 19368 1 103.70004 836.800000
19368 19370 19371 1 119.8800511 375.723200
19368 19370 19372 1 120.0200517 532.790560
19371 19370 19372 1 119.8800511 375.723200
19370 19372 19373 1 119.8800511 375.723200
19370 19372 19374 1 120.0200517 532.790560
19373 19372 19374 1 119.8800511 375.723200
19372 19374 19375 1 119.8800511 375.723200
19372 19374 19376 1 120.0200517 532.790560
19375 19374 19376 1 119.8800511 375.723200
19367 19376 19374 1 120.0200517 532.790560
19367 19376 19377 1 119.8800511 375.723200
19374 19376 19377 1 119.8800511 375.723200
19378 19379 19380 1 119.8800511 375.723200
19378 19379 19388 1 119.8800511 375.723200
19380 19379 19388 1 120.0200517 532.790560
19379 19380 19381 1 121.3800518 83.010560
19379 19380 19382 1 120.0200517 532.790560
19381 19380 19382 1 121.3800518 83.010560
7168 19381 7169 1 109.50000 418.400000
7168 19381 7170 1 109.50000 418.400000
7168 19381 19380 1 103.70004 836.800000
7169 19381 7170 1 109.50000 418.400000
7169 19381 19380 1 103.70004 836.800000
7170 19381 19380 1 103.70004 836.800000
19380 19382 19383 1 119.8800511 375.723200
19380 19382 19384 1 120.0200517 532.790560
19383 19382 19384 1 119.8800511 375.723200
19382 19384 19385 1 119.8800511 375.723200
19382 19384 19386 1 120.0200517 532.790560
19385 19384 19386 1 119.8800511 375.723200
19384 19386 19387 1 119.8800511 375.723200
19384 19386 19388 1 120.0200517 532.790560
19387 19386 19388 1 119.8800511 375.723200
19379 19388 19386 1 120.0200517 532.790560
19379 19388 19389 1 119.8800511 375.723200
19386 19388 19389 1 119.8800511 375.723200
19390 19391 19392 1 119.8800511 375.723200
19390 19391 19400 1 119.8800511 375.723200
19392 19391 19400 1 120.0200517 532.790560
19391 19392 19393 1 121.3800518 83.010560
19391 19392 19394 1 120.0200517 532.790560
19393 19392 19394 1 121.3800518 83.010560
2884 19393 9804 1 109.50000 418.400000
2884 19393 10802 1 109.50000 418.400000
2884 19393 19392 1 103.70004 836.800000
9804 19393 10802 1 109.50000 418.400000
9804 19393 19392 1 103.70004 836.800000
10802 19393 19392 1 103.70004 836.800000
19392 19394 19395 1 119.8800511 375.723200
19392 19394 19396 1 120.0200517 532.790560
19395 19394 19396 1 119.8800511 375.723200
19394 19396 19397 1 119.8800511 375.723200
19394 19396 19398 1 120.0200517 532.790560
19397 19396 19398 1 119.8800511 375.723200
19396 19398 19399 1 119.8800511 375.723200
19396 19398 19400 1 120.0200517 532.790560
19399 19398 19400 1 119.8800511 375.723200
19391 19400 19398 1 120.0200517 532.790560
19391 19400 19401 1 119.8800511 375.723200
19398 19400 19401 1 119.8800511 375.723200
19402 19403 19404 1 119.8800511 375.723200
19402 19403 19412 1 119.8800511 375.723200
19404 19403 19412 1 120.0200517 532.790560
19403 19404 19405 1 121.3800518 83.010560
19403 19404 19406 1 120.0200517 532.790560
19405 19404 19406 1 121.3800518 83.010560
8412 19405 10940 1 109.50000 418.400000
8412 19405 11250 1 109.50000 418.400000
8412 19405 19404 1 103.70004 836.800000
10940 19405 11250 1 109.50000 418.400000
10940 19405 19404 1 103.70004 836.800000
11250 19405 19404 1 103.70004 836.800000
19404 19406 19407 1 119.8800511 375.723200
19404 19406 19408 1 120.0200517 532.790560
19407 19406 19408 1 119.8800511 375.723200
19406 19408 19409 1 119.8800511 375.723200
19406 19408 19410 1 120.0200517 532.790560
19409 19408 19410 1 119.8800511 375.723200
19408 19410 19411 1 119.8800511 375.723200
19408 19410 19412 1 120.0200517 532.790560
19411 19410 19412 1 119.8800511 375.723200
19403 19412 19410 1 120.0200517 532.790560
19403 19412 19413 1 119.8800511 375.723200
19410 19412 19413 1 119.8800511 375.723200
19414 19415 19416 1 119.8800511 375.723200
19414 19415 19424 1 119.8800511 375.723200
19416 19415 19424 1 120.0200517 532.790560
19415 19416 19417 1 121.3800518 83.010560
19415 19416 19418 1 120.0200517 532.790560
19417 19416 19418 1 121.3800518 83.010560
4817 19417 7219 1 109.50000 418.400000
4817 19417 8381 1 109.50000 418.400000
4817 19417 19416 1 103.70004 836.800000
7219 19417 8381 1 109.50000 418.400000
7219 19417 19416 1 103.70004 836.800000
8381 19417 19416 1 103.70004 836.800000
19416 19418 19419 1 119.8800511 375.723200
19416 19418 19420 1 120.0200517 532.790560
19419 19418 19420 1 119.8800511 375.723200
19418 19420 19421 1 119.8800511 375.723200
19418 19420 19422 1 120.0200517 532.790560
19421 19420 19422 1 119.8800511 375.723200
19420 19422 19423 1 119.8800511 375.723200
19420 19422 19424 1 120.0200517 532.790560
19423 19422 19424 1 119.8800511 375.723200
19415 19424 19422 1 120.0200517 532.790560
19415 19424 19425 1 119.8800511 375.723200
19422 19424 19425 1 119.8800511 375.723200
19426 19427 19428 1 119.8800511 375.723200
19426 19427 19436 1 119.8800511 375.723200
19428 19427 19436 1 120.0200517 532.790560
19427 19428 19429 1 121.3800518 83.010560
19427 19428 19430 1 120.0200517 532.790560
19429 19428 19430 1 121.3800518 83.010560
374 19429 1718 1 109.50000 418.400000
374 19429 11241 1 109.50000 418.400000
374 19429 19428 1 103.70004 836.800000
1718 19429 11241 1 109.50000 418.400000
1718 19429 19428 1 103.70004 836.800000
11241 19429 19428 1 103.70004 836.800000
19428 19430 19431 1 119.8800511 375.723200
19428 19430 19432 1 120.0200517 532.790560
19431 19430 19432 1 119.8800511 375.723200
19430 19432 19433 1 119.8800511 375.723200
19430 19432 19434 1 120.0200517 532.790560
19433 19432 19434 1 119.8800511 375.723200
19432 19434 19435 1 119.8800511 375.723200
19432 19434 19436 1 120.0200517 532.790560
19435 19434 19436 1 119.8800511 375.723200
19427 19436 19434 1 120.0200517 532.790560
19427 19436 19437 1 119.8800511 375.723200
19434 19436 19437 1 119.8800511 375.723200
19438 19439 19440 1 119.8800511 375.723200
19438 19439 19448 1 119.8800511 375.723200
19440 19439 19448 1 120.0200517 532.790560
19439 19440 19441 1 121.3800518 83.010560
19439 19440 19442 1 120.0200517 532.790560
19441 19440 19442 1 121.3800518 83.010560
654 19441 5054 1 109.50000 418.400000
654 19441 5055 1 109.50000 418.400000
654 19441 19440 1 103.70004 836.800000
5054 19441 5055 1 109.50000 418.400000
5054 19441 19440 1 103.70004 836.800000
5055 19441 19440 1 103.70004 836.800000
19440 19442 19443 1 119.8800511 375.723200
19440 19442 19444 1 120.0200517 532.790560
19443 19442 19444 1 119.8800511 375.723200
19442 19444 19445 1 119.8800511 375.723200
19442 19444 19446 1 120.0200517 532.790560
19445 19444 19446 1 119.8800511 375.723200
19444 19446 19447 1 119.8800511 375.723200
19444 19446 19448 1 120.0200517 532.790560
19447 19446 19448 1 119.8800511 375.723200
19439 19448 19446 1 120.0200517 532.790560
19439 19448 19449 1 119.8800511 375.723200
19446 19448 19449 1 119.8800511 375.723200
19450 19451 19452 1 119.8800511 375.723200
19450 19451 19460 1 119.8800511 375.723200
19452 19451 19460 1 120.0200517 532.790560
19451 19452 19453 1 121.3800518 83.010560
19451 19452 19454 1 120.0200517 532.790560
19453 19452 19454 1 121.3800518 83.010560
21 19453 8550 1 109.50000 418.400000
21 19453 11189 1 109.50000 418.400000
21 19453 19452 1 103.70004 836.800000
8550 19453 11189 1 109.50000 418.400000
8550 19453 19452 1 103.70004 836.800000
11189 19453 19452 1 103.70004 836.800000
19452 19454 19455 1 119.8800511 375.723200
19452 19454 19456 1 120.0200517 532.790560
19455 19454 19456 1 119.8800511 375.723200
19454 19456 19457 1 119.8800511 375.723200
19454 19456 19458 1 120.0200517 532.790560
19457 19456 19458 1 119.8800511 375.723200
19456 19458 19459 1 119.8800511 375.723200
19456 19458 19460 1 120.0200517 532.790560
19459 19458 19460 1 119.8800511 375.723200
19451 19460 19458 1 120.0200517 532.790560
19451 19460 19461 1 119.8800511 375.723200
19458 19460 19461 1 119.8800511 375.723200
19462 19463 19464 1 119.8800511 375.723200
19462 19463 19472 1 119.8800511 375.723200
19464 19463 19472 1 120.0200517 532.790560
19463 19464 19465 1 121.3800518 83.010560
19463 19464 19466 1 120.0200517 532.790560
19465 19464 19466 1 121.3800518 83.010560
3302 19465 3303 1 109.50000 418.400000
3302 19465 3304 1 109.50000 418.400000
3302 19465 19464 1 103.70004 836.800000
3303 19465 3304 1 109.50000 418.400000
3303 19465 19464 1 103.70004 836.800000
3304 19465 19464 1 103.70004 836.800000
19464 19466 19467 1 119.8800511 375.723200
19464 19466 19468 1 120.0200517 532.790560
19467 19466 19468 1 119.8800511 375.723200
19466 19468 19469 1 119.8800511 375.723200
19466 19468 19470 1 120.0200517 532.790560
19469 19468 19470 1 119.8800511 375.723200
19468 19470 19471 1 119.8800511 375.723200
19468 19470 19472 1 120.0200517 532.790560
19471 19470 19472 1 119.8800511 375.723200
19463 19472 19470 1 120.0200517 532.790560
19463 19472 19473 1 119.8800511 375.723200
19470 19472 19473 1 119.8800511 375.723200
19474 19475 19476 1 119.8800511 375.723200
19474 19475 19484 1 119.8800511 375.723200
19476 19475 19484 1 120.0200517 532.790560
19475 19476 19477 1 121.3800518 83.010560
19475 19476 19478 1 120.0200517 532.790560
19477 19476 19478 1 121.3800518 83.010560
5592 19477 9575 1 109.50000 418.400000
5592 19477 9642 1 109.50000 418.400000
5592 19477 19476 1 103.70004 836.800000
9575 19477 9642 1 109.50000 418.400000
9575 19477 19476 1 103.70004 836.800000
9642 19477 19476 1 103.70004 836.800000
19476 19478 19479 1 119.8800511 375.723200
19476 19478 19480 1 120.0200517 532.790560
19479 19478 19480 1 119.8800511 375.723200
19478 19480 19481 1 119.8800511 375.723200
19478 19480 19482 1 120.0200517 532.790560
19481 19480 19482 1 119.8800511 375.723200
19480 19482 19483 1 119.8800511 375.723200
19480 19482 19484 1 120.0200517 532.790560
19483 19482 19484 1 119.8800511 375.723200
19475 19484 19482 1 120.0200517 532.790560
19475 19484 19485 1 119.8800511 375.723200
19482 19484 19485 1 119.8800511 375.723200
19486 19487 19488 1 119.8800511 375.723200
19486 19487 19496 1 119.8800511 375.723200
19488 19487 19496 1 120.0200517 532.790560
19487 19488 19489 1 121.3800518 83.010560
19487 19488 19490 1 120.0200517 532.790560
19489 19488 19490 1 121.3800518 83.010560
5356 19489 9950 1 109.50000 418.400000
5356 19489 10911 1 109.50000 418.400000
5356 19489 19488 1 103.70004 836.800000
9950 19489 10911 1 109.50000 418.400000
9950 19489 19488 1 103.70004 836.800000
10911 19489 19488 1 103.70004 836.800000
19488 19490 19491 1 119.8800511 375.723200
19488 19490 19492 1 120.0200517 532.790560
19491 19490 19492 1 119.8800511 375.723200
19490 19492 19493 1 119.8800511 375.723200
19490 19492 19494 1 120.0200517 532.790560
19493 19492 19494 1 119.8800511 375.723200
19492 19494 19495 1 119.8800511 375.723200
19492 19494 19496 1 120.0200517 532.790560
19495 19494 19496 1 119.8800511 375.723200
19487 19496 19494 1 120.0200517 532.790560
19487 19496 19497 1 119.8800511 375.723200
19494 19496 19497 1 119.8800511 375.723200
19498 19499 19500 1 119.8800511 375.723200
19498 19499 19508 1 119.8800511 375.723200
19500 19499 19508 1 120.0200517 532.790560
19499 19500 19501 1 121.3800518 83.010560
19499 19500 19502 1 120.0200517 532.790560
19501 19500 19502 1 121.3800518 83.010560
2732 19501 3337 1 109.50000 418.400000
2732 19501 4800 1 109.50000 418.400000
2732 19501 19500 1 103.70004 836.800000
3337 19501 4800 1 109.50000 418.400000
3337 19501 19500 1 103.70004 836.800000
4800 19501 19500 1 103.70004 836.800000
19500 19502 19503 1 119.8800511 375.723200
19500 19502 19504 1 120.0200517 532.790560
19503 19502 19504 1 119.8800511 375.723200
19502 19504 19505 1 119.8800511 375.723200
19502 19504 19506 1 120.0200517 532.790560
19505 19504 19506 1 119.8800511 375.723200
19504 19506 19507 1 119.8800511 375.723200
19504 19506 19508 1 120.0200517 532.790560
19507 19506 19508 1 119.8800511 375.723200
19499 19508 19506 1 120.0200517 532.790560
19499 19508 19509 1 119.8800511 375.723200
19506 19508 19509 1 119.8800511 375.723200
19510 19511 19512 1 119.8800511 375.723200
19510 19511 19520 1 119.8800511 375.723200
19512 19511 19520 1 120.0200517 532.790560
19511 19512 19513 1 121.3800518 83.010560
19511 19512 19514 1 120.0200517 532.790560
19513 19512 19514 1 121.3800518 83.010560
2327 19513 2964 1 109.50000 418.400000
2327 19513 6265 1 109.50000 418.400000
2327 19513 19512 1 103.70004 836.800000
2964 19513 6265 1 109.50000 418.400000
2964 19513 19512 1 103.70004 836.800000
6265 19513 19512 1 103.70004 836.800000
19512 19514 19515 1 119.8800511 375.723200
19512 19514 19516 1 120.0200517 532.790560
19515 19514 19516 1 119.8800511 375.723200
19514 19516 19517 1 119.8800511 375.723200
19514 19516 19518 1 120.0200517 532.790560
19517 19516 19518 1 119.8800511 375.723200
19516 19518 19519 1 119.8800511 375.723200
19516 19518 19520 1 120.0200517 532.790560
19519 19518 19520 1 119.8800511 375.723200
19511 19520 19518 1 120.0200517 532.790560
19511 19520 19521 1 119.8800511 375.723200
19518 19520 19521 1 119.8800511 375.723200
19522 19523 19524 1 119.8800511 375.723200
19522 19523 19532 1 119.8800511 375.723200
19524 19523 19532 1 120.0200517 532.790560
19523 19524 19525 1 121.3800518 83.010560
19523 19524 19526 1 120.0200517 532.790560
19525 19524 19526 1 121.3800518 83.010560
6698 19525 11049 1 109.50000 418.400000
6698 19525 11116 1 109.50000 418.400000
6698 19525 19524 1 103.70004 836.800000
11049 19525 11116 1 109.50000 418.400000
11049 19525 19524 1 103.70004 836.800000
11116 19525 19524 1 103.70004 836.800000
19524 19526 19527 1 119.8800511 375.723200
19524 19526 19528 1 120.0200517 532.790560
19527 19526 19528 1 119.8800511 375.723200
19526 19528 19529 1 119.8800511 375.723200
19526 19528 19530 1 120.0200517 532.790560
19529 19528 19530 1 119.8800511 375.723200
19528 19530 19531 1 119.8800511 375.723200
19528 19530 19532 1 120.0200517 532.790560
19531 19530 19532 1 119.8800511 375.723200
19523 19532 19530 1 120.0200517 532.790560
19523 19532 19533 1 119.8800511 375.723200
19530 19532 19533 1 119.8800511 375.723200
19534 19535 19536 1 119.8800511 375.723200
19534 19535 19544 1 119.8800511 375.723200
19536 19535 19544 1 120.0200517 532.790560
19535 19536 19537 1 121.3800518 83.010560
19535 19536 19538 1 120.0200517 532.790560
19537 19536 19538 1 121.3800518 83.010560
18 19537 8294 1 109.50000 418.400000
18 19537 9011 1 109.50000 418.400000
18 19537 19536 1 103.70004 836.800000
8294 19537 9011 1 109.50000 418.400000
8294 19537 19536 1 103.70004 836.800000
9011 19537 19536 1 103.70004 836.800000
19536 19538 19539 1 119.8800511 375.723200
19536 19538 19540 1 120.0200517 532.790560
19539 19538 19540 1 119.8800511 375.723200
19538 19540 19541 1 119.8800511 375.723200
19538 19540 19542 1 120.0200517 532.790560
19541 19540 19542 1 119.8800511 375.723200
19540 19542 19543 1 119.8800511 375.723200
19540 19542 19544 1 120.0200517 532.790560
19543 19542 19544 1 119.8800511 375.723200
19535 19544 19542 1 120.0200517 532.790560
19535 19544 19545 1 119.8800511 375.723200
19542 19544 19545 1 119.8800511 375.723200
19546 19547 19548 1 119.8800511 375.723200
19546 19547 19556 1 119.8800511 375.723200
19548 19547 19556 1 120.0200517 532.790560
19547 19548 19549 1 121.3800518 83.010560
19547 19548 19550 1 120.0200517 532.790560
19549 19548 19550 1 121.3800518 83.010560
3376 19549 3377 1 109.50000 418.400000
3376 19549 3378 1 109.50000 418.400000
3376 19549 19548 1 103.70004 836.800000
3377 19549 3378 1 109.50000 418.400000
3377 19549 19548 1 103.70004 836.800000
3378 19549 19548 1 103.70004 836.800000
19548 19550 19551 1 119.8800511 375.723200
19548 19550 19552 1 120.0200517 532.790560
19551 19550 19552 1 119.8800511 375.723200
19550 19552 19553 1 119.8800511 375.723200
19550 19552 19554 1 120.0200517 532.790560
19553 19552 19554 1 119.8800511 375.723200
19552 19554 19555 1 119.8800511 375.723200
19552 19554 19556 1 120.0200517 532.790560
19555 19554 19556 1 119.8800511 375.723200
19547 19556 19554 1 120.0200517 532.790560
19547 19556 19557 1 119.8800511 375.723200
19554 19556 19557 1 119.8800511 375.723200
19558 19559 19560 1 119.8800511 375.723200
19558 19559 19568 1 119.8800511 375.723200
19560 19559 19568 1 120.0200517 532.790560
19559 19560 19561 1 121.3800518 83.010560
19559 19560 19562 1 120.0200517 532.790560
19561 19560 19562 1 121.3800518 83.010560
1329 19561 1331 1 109.50000 418.400000
1329 19561 2429 1 109.50000 418.400000
1329 19561 19560 1 103.70004 836.800000
1331 19561 2429 1 109.50000 418.400000
1331 19561 19560 1 103.70004 836.800000
2429 19561 19560 1 103.70004 836.800000
19560 19562 19563 1 119.8800511 375.723200
19560 19562 19564 1 120.0200517 532.790560
19563 19562 19564 1 119.8800511 375.723200
19562 19564 19565 1 119.8800511 375.723200
19562 19564 19566 1 120.0200517 532.790560
19565 19564 19566 1 119.8800511 375.723200
19564 19566 19567 1 119.8800511 375.723200
19564 19566 19568 1 120.0200517 532.790560
19567 19566 19568 1 119.8800511 375.723200
19559 19568 19566 1 120.0200517 532.790560
19559 19568 19569 1 119.8800511 375.723200
19566 19568 19569 1 119.8800511 375.723200
19570 19571 19572 1 119.8800511 375.723200
19570 19571 19580 1 119.8800511 375.723200
19572 19571 19580 1 120.0200517 532.790560
19571 19572 19573 1 121.3800518 83.010560
19571 19572 19574 1 120.0200517 532.790560
19573 19572 19574 1 121.3800518 83.010560
1701 19573 4553 1 109.50000 418.400000
1701 19573 8520 1 109.50000 418.400000
1701 19573 19572 1 103.70004 836.800000
4553 19573 8520 1 109.50000 418.400000
4553 19573 19572 1 103.70004 836.800000
8520 19573 19572 1 103.70004 836.800000
19572 19574 19575 1 119.8800511 375.723200
19572 19574 19576 1 120.0200517 532.790560
19575 19574 19576 1 119.8800511 375.723200
19574 19576 19577 1 119.8800511 375.723200
19574 19576 19578 1 120.0200517 532.790560
19577 19576 19578 1 119.8800511 375.723200
19576 19578 19579 1 119.8800511 375.723200
19576 19578 19580 1 120.0200517 532.790560
19579 19578 19580 1 119.8800511 375.723200
19571 19580 19578 1 120.0200517 532.790560
19571 19580 19581 1 119.8800511 375.723200
19578 19580 19581 1 119.8800511 375.723200
19582 19583 19584 1 119.8800511 375.723200
19582 19583 19592 1 119.8800511 375.723200
19584 19583 19592 1 120.0200517 532.790560
19583 19584 19585 1 121.3800518 83.010560
19583 19584 19586 1 120.0200517 532.790560
19585 19584 19586 1 121.3800518 83.010560
6379 19585 7686 1 109.50000 418.400000
6379 19585 11201 1 109.50000 418.400000
6379 19585 19584 1 103.70004 836.800000
7686 19585 11201 1 109.50000 418.400000
7686 19585 19584 1 103.70004 836.800000
11201 19585 19584 1 103.70004 836.800000
19584 19586 19587 1 119.8800511 375.723200
19584 19586 19588 1 120.0200517 532.790560
19587 19586 19588 1 119.8800511 375.723200
19586 19588 19589 1 119.8800511 375.723200
19586 19588 19590 1 120.0200517 532.790560
19589 19588 19590 1 119.8800511 375.723200
19588 19590 19591 1 119.8800511 375.723200
19588 19590 19592 1 120.0200517 532.790560
19591 19590 19592 1 119.8800511 375.723200
19583 19592 19590 1 120.0200517 532.790560
19583 19592 19593 1 119.8800511 375.723200
19590 19592 19593 1 119.8800511 375.723200
19594 19595 19596 1 119.8800511 375.723200
19594 19595 19604 1 119.8800511 375.723200
19596 19595 19604 1 120.0200517 532.790560
19595 19596 19597 1 121.3800518 83.010560
19595 19596 19598 1 120.0200517 532.790560
19597 19596 19598 1 121.3800518 83.010560
5736 19597 7301 1 109.50000 418.400000
5736 19597 7302 1 109.50000 418.400000
5736 19597 19596 1 103.70004 836.800000
7301 19597 7302 1 109.50000 418.400000
7301 19597 19596 1 103.70004 836.800000
7302 19597 19596 1 103.70004 836.800000
19596 19598 19599 1 119.8800511 375.723200
19596 19598 19600 1 120.0200517 532.790560
19599 19598 19600 1 119.8800511 375.723200
19598 19600 19601 1 119.8800511 375.723200
19598 19600 19602 1 120.0200517 532.790560
19601 19600 19602 1 119.8800511 375.723200
19600 19602 19603 1 119.8800511 375.723200
19600 19602 19604 1 120.0200517 532.790560
19603 19602 19604 1 119.8800511 375.723200
19595 19604 19602 1 120.0200517 532.790560
19595 19604 19605 1 119.8800511 375.723200
19602 19604 19605 1 119.8800511 375.723200
19606 19607 19608 1 119.8800511 375.723200
19606 19607 19616 1 119.8800511 375.723200
19608 19607 19616 1 120.0200517 532.790560
19607 19608 19609 1 121.3800518 83.010560
19607 19608 19610 1 120.0200517 532.790560
19609 19608 19610 1 121.3800518 83.010560
5299 19609 6666 1 109.50000 418.400000
5299 19609 8298 1 109.50000 418.400000
5299 19609 19608 1 103.70004 836.800000
6666 19609 8298 1 109.50000 418.400000
6666 19609 19608 1 103.70004 836.800000
8298 19609 19608 1 103.70004 836.800000
19608 19610 19611 1 119.8800511 375.723200
19608 19610 19612 1 120.0200517 532.790560
19611 19610 19612 1 119.8800511 375.723200
19610 19612 19613 1 119.8800511 375.723200
19610 19612 19614 1 120.0200517 532.790560
19613 19612 19614 1 119.8800511 375.723200
19612 19614 19615 1 119.8800511 375.723200
19612 19614 19616 1 120.0200517 532.790560
19615 19614 19616 1 119.8800511 375.723200
19607 19616 19614 1 120.0200517 532.790560
19607 19616 19617 1 119.8800511 375.723200
19614 19616 19617 1 119.8800511 375.723200
19618 19619 19620 1 119.8800511 375.723200
19618 19619 19628 1 119.8800511 375.723200
19620 19619 19628 1 120.0200517 532.790560
19619 19620 19621 1 121.3800518 83.010560
19619 19620 19622 1 120.0200517 532.790560
19621 19620 19622 1 121.3800518 83.010560
5671 19621 7291 1 109.50000 418.400000
5671 19621 10536 1 109.50000 418.400000
5671 19621 19620 1 103.70004 836.800000
7291 19621 10536 1 109.50000 418.400000
7291 19621 19620 1 103.70004 836.800000
10536 19621 19620 1 103.70004 836.800000
19620 19622 19623 1 119.8800511 375.723200
19620 19622 19624 1 120.0200517 532.790560
19623 19622 19624 1 119.8800511 375.723200
19622 19624 19625 1 119.8800511 375.723200
19622 19624 19626 1 120.0200517 532.790560
19625 19624 19626 1 119.8800511 375.723200
19624 19626 19627 1 119.8800511 375.723200
19624 19626 19628 1 120.0200517 532.790560
19627 19626 19628 1 119.8800511 375.723200
19619 19628 19626 1 120.0200517 532.790560
19619 19628 19629 1 119.8800511 375.723200
19626 19628 19629 1 119.8800511 375.723200
19630 19631 19632 1 119.8800511 375.723200
19630 19631 19640 1 119.8800511 375.723200
19632 19631 19640 1 120.0200517 532.790560
19631 19632 19633 1 121.3800518 83.010560
19631 19632 19634 1 120.0200517 532.790560
19633 19632 19634 1 121.3800518 83.010560
2620 19633 6148 1 109.50000 418.400000
2620 19633 6149 1 109.50000 418.400000
2620 19633 19632 1 103.70004 836.800000
6148 19633 6149 1 109.50000 418.400000
6148 19633 19632 1 103.70004 836.800000
6149 19633 19632 1 103.70004 836.800000
19632 19634 19635 1 119.8800511 375.723200
19632 19634 19636 1 120.0200517 532.790560
19635 19634 19636 1 119.8800511 375.723200
19634 19636 19637 1 119.8800511 375.723200
19634 19636 19638 1 120.0200517 532.790560
19637 19636 19638 1 119.8800511 375.723200
19636 19638 19639 1 119.8800511 375.723200
19636 19638 19640 1 120.0200517 532.790560
19639 19638 19640 1 119.8800511 375.723200
19631 19640 19638 1 120.0200517 532.790560
19631 19640 19641 1 119.8800511 375.723200
19638 19640 19641 1 119.8800511 375.723200
19642 19643 19644 1 119.8800511 375.723200
19642 19643 19652 1 119.8800511 375.723200
19644 19643 19652 1 120.0200517 532.790560
19643 19644 19645 1 121.3800518 83.010560
19643 19644 19646 1 120.0200517 532.790560
19645 19644 19646 1 121.3800518 83.010560
4425 19645 9506 1 109.50000 418.400000
4425 19645 10887 1 109.50000 418.400000
4425 19645 19644 1 103.70004 836.800000
9506 19645 10887 1 109.50000 418.400000
9506 19645 19644 1 103.70004 836.800000
10887 19645 19644 1 103.70004 836.800000
19644 19646 19647 1 119.8800511 375.723200
19644 19646 19648 1 120.0200517 532.790560
19647 19646 19648 1 119.8800511 375.723200
19646 19648 19649 1 119.8800511 375.723200
19646 19648 19650 1 120.0200517 532.790560
19649 19648 19650 1 119.8800511 375.723200
19648 19650 19651 1 119.8800511 375.723200
19648 19650 19652 1 120.0200517 532.790560
19651 19650 19652 1 119.8800511 375.723200
19643 19652 19650 1 120.0200517 532.790560
19643 19652 19653 1 119.8800511 375.723200
19650 19652 19653 1 119.8800511 375.723200
19654 19655 19656 1 119.8800511 375.723200
19654 19655 19664 1 119.8800511 375.723200
19656 19655 19664 1 120.0200517 532.790560
19655 19656 19657 1 121.3800518 83.010560
19655 19656 19658 1 120.0200517 532.790560
19657 19656 19658 1 121.3800518 83.010560
8483 19657 9270 1 109.50000 418.400000
8483 19657 9271 1 109.50000 418.400000
8483 19657 19656 1 103.70004 836.800000
9270 19657 9271 1 109.50000 418.400000
9270 19657 19656 1 103.70004 836.800000
9271 19657 19656 1 103.70004 836.800000
19656 19658 19659 1 119.8800511 375.723200
19656 19658 19660 1 120.0200517 532.790560
19659 19658 19660 1 119.8800511 375.723200
19658 19660 19661 1 119.8800511 375.723200
19658 19660 19662 1 120.0200517 532.790560
19661 19660 19662 1 119.8800511 375.723200
19660 19662 19663 1 119.8800511 375.723200
19660 19662 19664 1 120.0200517 532.790560
19663 19662 19664 1 119.8800511 375.723200
19655 19664 19662 1 120.0200517 532.790560
19655 19664 19665 1 119.8800511 375.723200
19662 19664 19665 1 119.8800511 375.723200
19666 19667 19668 1 119.8800511 375.723200
19666 19667 19676 1 119.8800511 375.723200
19668 19667 19676 1 120.0200517 532.790560
19667 19668 19669 1 121.3800518 83.010560
19667 19668 19670 1 120.0200517 532.790560
19669 19668 19670 1 121.3800518 83.010560
5975 19669 7019 1 109.50000 418.400000
5975 19669 7020 1 109.50000 418.400000
5975 19669 19668 1 103.70004 836.800000
7019 19669 7020 1 109.50000 418.400000
7019 19669 19668 1 103.70004 836.800000
7020 19669 19668 1 103.70004 836.800000
19668 19670 19671 1 119.8800511 375.723200
19668 19670 19672 1 120.0200517 532.790560
19671 19670 19672 1 119.8800511 375.723200
19670 19672 19673 1 119.8800511 375.723200
19670 19672 19674 1 120.0200517 532.790560
19673 19672 19674 1 119.8800511 375.723200
19672 19674 19675 1 119.8800511 375.723200
19672 19674 19676 1 120.0200517 532.790560
19675 19674 19676 1 119.8800511 375.723200
19667 19676 19674 1 120.0200517 532.790560
19667 19676 19677 1 119.8800511 375.723200
19674 19676 19677 1 119.8800511 375.723200
19678 19679 19680 1 119.8800511 375.723200
19678 19679 19688 1 119.8800511 375.723200
19680 19679 19688 1 120.0200517 532.790560
19679 19680 19681 1 121.3800518 83.010560
19679 19680 19682 1 120.0200517 532.790560
19681 19680 19682 1 121.3800518 83.010560
1735 19681 1736 1 109.50000 418.400000
1735 19681 1737 1 109.50000 418.400000
1735 19681 19680 1 103.70004 836.800000
1736 19681 1737 1 109.50000 418.400000
1736 19681 19680 1 103.70004 836.800000
1737 19681 19680 1 103.70004 836.800000
19680 19682 19683 1 119.8800511 375.723200
19680 19682 19684 1 120.0200517 532.790560
19683 19682 19684 1 119.8800511 375.723200
19682 19684 19685 1 119.8800511 375.723200
19682 19684 19686 1 120.0200517 532.790560
19685 19684 19686 1 119.8800511 375.723200
19684 19686 19687 1 119.8800511 375.723200
19684 19686 19688 1 120.0200517 532.790560
19687 19686 19688 1 119.8800511 375.723200
19679 19688 19686 1 120.0200517 532.790560
19679 19688 19689 1 119.8800511 375.723200
19686 19688 19689 1 119.8800511 375.723200
19690 19691 19692 1 119.8800511 375.723200
19690 19691 19700 1 119.8800511 375.723200
19692 19691 19700 1 120.0200517 532.790560
19691 19692 19693 1 121.3800518 83.010560
19691 19692 19694 1 120.0200517 532.790560
19693 19692 19694 1 121.3800518 83.010560
10030 19693 10544 1 109.50000 418.400000
10030 19693 11069 1 109.50000 418.400000
10030 19693 19692 1 103.70004 836.800000
10544 19693 11069 1 109.50000 418.400000
10544 19693 19692 1 103.70004 836.800000
11069 19693 19692 1 103.70004 836.800000
19692 19694 19695 1 119.8800511 375.723200
19692 19694 19696 1 120.0200517 532.790560
19695 19694 19696 1 119.8800511 375.723200
19694 19696 19697 1 119.8800511 375.723200
19694 19696 19698 1 120.0200517 532.790560
19697 19696 19698 1 119.8800511 375.723200
19696 19698 19699 1 119.8800511 375.723200
19696 19698 19700 1 120.0200517 532.790560
19699 19698 19700 1 119.8800511 375.723200
19691 19700 19698 1 120.0200517 532.790560
19691 19700 19701 1 119.8800511 375.723200
19698 19700 19701 1 119.8800511 375.723200
19702 19703 19704 1 119.8800511 375.723200
19702 19703 19712 1 119.8800511 375.723200
19704 19703 19712 1 120.0200517 532.790560
19703 19704 19705 1 121.3800518 83.010560
19703 19704 19706 1 120.0200517 532.790560
19705 19704 19706 1 121.3800518 83.010560
2031 19705 3568 1 109.50000 418.400000
2031 19705 4118 1 109.50000 418.400000
2031 19705 19704 1 103.70004 836.800000
3568 19705 4118 1 109.50000 418.400000
3568 19705 19704 1 103.70004 836.800000
4118 19705 19704 1 103.70004 836.800000
19704 19706 19707 1 119.8800511 375.723200
19704 19706 19708 1 120.0200517 532.790560
19707 19706 19708 1 119.8800511 375.723200
19706 19708 19709 1 119.8800511 375.723200
19706 19708 19710 1 120.0200517 532.790560
19709 19708 19710 1 119.8800511 375.723200
19708 19710 19711 1 119.8800511 375.723200
19708 19710 19712 1 120.0200517 532.790560
19711 19710 19712 1 119.8800511 375.723200
19703 19712 19710 1 120.0200517 532.790560
19703 19712 19713 1 119.8800511 375.723200
19710 19712 19713 1 119.8800511 375.723200
19714 19715 19716 1 119.8800511 375.723200
19714 19715 19724 1 119.8800511 375.723200
19716 19715 19724 1 120.0200517 532.790560
19715 19716 19717 1 121.3800518 83.010560
19715 19716 19718 1 120.0200517 532.790560
19717 19716 19718 1 121.3800518 83.010560
123 19717 124 1 109.50000 418.400000
123 19717 125 1 109.50000 418.400000
123 19717 19716 1 103.70004 836.800000
124 19717 125 1 109.50000 418.400000
124 19717 19716 1 103.70004 836.800000
125 19717 19716 1 103.70004 836.800000
19716 19718 19719 1 119.8800511 375.723200
19716 19718 19720 1 120.0200517 532.790560
19719 19718 19720 1 119.8800511 375.723200
19718 19720 19721 1 119.8800511 375.723200
19718 19720 19722 1 120.0200517 532.790560
19721 19720 19722 1 119.8800511 375.723200
19720 19722 19723 1 119.8800511 375.723200
19720 19722 19724 1 120.0200517 532.790560
19723 19722 19724 1 119.8800511 375.723200
19715 19724 19722 1 120.0200517 532.790560
19715 19724 19725 1 119.8800511 375.723200
19722 19724 19725 1 119.8800511 375.723200
19726 19727 19728 1 119.8800511 375.723200
19726 19727 19736 1 119.8800511 375.723200
19728 19727 19736 1 120.0200517 532.790560
19727 19728 19729 1 121.3800518 83.010560
19727 19728 19730 1 120.0200517 532.790560
19729 19728 19730 1 121.3800518 83.010560
137 19729 578 1 109.50000 418.400000
137 19729 579 1 109.50000 418.400000
137 19729 19728 1 103.70004 836.800000
578 19729 579 1 109.50000 418.400000
578 19729 19728 1 103.70004 836.800000
579 19729 19728 1 103.70004 836.800000
19728 19730 19731 1 119.8800511 375.723200
19728 19730 19732 1 120.0200517 532.790560
19731 19730 19732 1 119.8800511 375.723200
19730 19732 19733 1 119.8800511 375.723200
19730 19732 19734 1 120.0200517 532.790560
19733 19732 19734 1 119.8800511 375.723200
19732 19734 19735 1 119.8800511 375.723200
19732 19734 19736 1 120.0200517 532.790560
19735 19734 19736 1 119.8800511 375.723200
19727 19736 19734 1 120.0200517 532.790560
19727 19736 19737 1 119.8800511 375.723200
19734 19736 19737 1 119.8800511 375.723200
19738 19739 19740 1 119.8800511 375.723200
19738 19739 19748 1 119.8800511 375.723200
19740 19739 19748 1 120.0200517 532.790560
19739 19740 19741 1 121.3800518 83.010560
19739 19740 19742 1 120.0200517 532.790560
19741 19740 19742 1 121.3800518 83.010560
6108 19741 6197 1 109.50000 418.400000
6108 19741 10801 1 109.50000 418.400000
6108 19741 19740 1 103.70004 836.800000
6197 19741 10801 1 109.50000 418.400000
6197 19741 19740 1 103.70004 836.800000
10801 19741 19740 1 103.70004 836.800000
19740 19742 19743 1 119.8800511 375.723200
19740 19742 19744 1 120.0200517 532.790560
19743 19742 19744 1 119.8800511 375.723200
19742 19744 19745 1 119.8800511 375.723200
19742 19744 19746 1 120.0200517 532.790560
19745 19744 19746 1 119.8800511 375.723200
19744 19746 19747 1 119.8800511 375.723200
19744 19746 19748 1 120.0200517 532.790560
19747 19746 19748 1 119.8800511 375.723200
19739 19748 19746 1 120.0200517 532.790560
19739 19748 19749 1 119.8800511 375.723200
19746 19748 19749 1 119.8800511 375.723200
19750 19751 19752 1 119.8800511 375.723200
19750 19751 19760 1 119.8800511 375.723200
19752 19751 19760 1 120.0200517 532.790560
19751 19752 19753 1 121.3800518 83.010560
19751 19752 19754 1 120.0200517 532.790560
19753 19752 19754 1 121.3800518 83.010560
458 19753 3771 1 109.50000 418.400000
458 19753 3772 1 109.50000 418.400000
458 19753 19752 1 103.70004 836.800000
3771 19753 3772 1 109.50000 418.400000
3771 19753 19752 1 103.70004 836.800000
3772 19753 19752 1 103.70004 836.800000
19752 19754 19755 1 119.8800511 375.723200
19752 19754 19756 1 120.0200517 532.790560
19755 19754 19756 1 119.8800511 375.723200
19754 19756 19757 1 119.8800511 375.723200
19754 19756 19758 1 120.0200517 532.790560
19757 19756 19758 1 119.8800511 375.723200
19756 19758 19759 1 119.8800511 375.723200
19756 19758 19760 1 120.0200517 532.790560
19759 19758 19760 1 119.8800511 375.723200
19751 19760 19758 1 120.0200517 532.790560
19751 19760 19761 1 119.8800511 375.723200
19758 19760 19761 1 119.8800511 375.723200
19762 19763 19764 1 119.8800511 375.723200
19762 19763 19772 1 119.8800511 375.723200
19764 19763 19772 1 120.0200517 532.790560
19763 19764 19765 1 121.3800518 83.010560
19763 19764 19766 1 120.0200517 532.790560
19765 19764 19766 1 121.3800518 83.010560
3775 19765 5269 1 109.50000 418.400000
3775 19765 7991 1 109.50000 418.400000
3775 19765 19764 1 103.70004 836.800000
5269 19765 7991 1 109.50000 418.400000
5269 19765 19764 1 103.70004 836.800000
7991 19765 19764 1 103.70004 836.800000
19764 19766 19767 1 119.8800511 375.723200
19764 19766 19768 1 120.0200517 532.790560
19767 19766 19768 1 119.8800511 375.723200
19766 19768 19769 1 119.8800511 375.723200
19766 19768 19770 1 120.0200517 532.790560
19769 19768 19770 1 119.8800511 375.723200
19768 19770 19771 1 119.8800511 375.723200
19768 19770 19772 1 120.0200517 532.790560
19771 19770 19772 1 119.8800511 375.723200
19763 19772 19770 1 120.0200517 532.790560
19763 19772 19773 1 119.8800511 375.723200
19770 19772 19773 1 119.8800511 375.723200
19774 19775 19776 1 119.8800511 375.723200
19774 19775 19784 1 119.8800511 375.723200
19776 19775 19784 1 120.0200517 532.790560
19775 19776 19777 1 121.3800518 83.010560
19775 19776 19778 1 120.0200517 532.790560
19777 19776 19778 1 121.3800518 83.010560
4929 19777 10286 1 109.50000 418.400000
4929 19777 10500 1 109.50000 418.400000
4929 19777 19776 1 103.70004 836.800000
10286 19777 10500 1 109.50000 418.400000
10286 19777 19776 1 103.70004 836.800000
10500 19777 19776 1 103.70004 836.800000
19776 19778 19779 1 119.8800511 375.723200
19776 19778 19780 1 120.0200517 532.790560
19779 19778 19780 1 119.8800511 375.723200
19778 19780 19781 1 119.8800511 375.723200
19778 19780 19782 1 120.0200517 532.790560
19781 19780 19782 1 119.8800511 375.723200
19780 19782 19783 1 119.8800511 375.723200
19780 19782 19784 1 120.0200517 532.790560
19783 19782 19784 1 119.8800511 375.723200
19775 19784 19782 1 120.0200517 532.790560
19775 19784 19785 1 119.8800511 375.723200
19782 19784 19785 1 119.8800511 375.723200
19786 19787 19788 1 119.8800511 375.723200
19786 19787 19796 1 119.8800511 375.723200
19788 19787 19796 1 120.0200517 532.790560
19787 19788 19789 1 121.3800518 83.010560
19787 19788 19790 1 120.0200517 532.790560
19789 19788 19790 1 121.3800518 83.010560
4623 19789 5297 1 109.50000 418.400000
4623 19789 8375 1 109.50000 418.400000
4623 19789 19788 1 103.70004 836.800000
5297 19789 8375 1 109.50000 418.400000
5297 19789 19788 1 103.70004 836.800000
8375 19789 19788 1 103.70004 836.800000
19788 19790 19791 1 119.8800511 375.723200
19788 19790 19792 1 120.0200517 532.790560
19791 19790 19792 1 119.8800511 375.723200
19790 19792 19793 1 119.8800511 375.723200
19790 19792 19794 1 120.0200517 532.790560
19793 19792 19794 1 119.8800511 375.723200
19792 19794 19795 1 119.8800511 375.723200
19792 19794 19796 1 120.0200517 532.790560
19795 19794 19796 1 119.8800511 375.723200
19787 19796 19794 1 120.0200517 532.790560
19787 19796 19797 1 119.8800511 375.723200
19794 19796 19797 1 119.8800511 375.723200
19798 19799 19800 1 119.8800511 375.723200
19798 19799 19808 1 119.8800511 375.723200
19800 19799 19808 1 120.0200517 532.790560
19799 19800 19801 1 121.3800518 83.010560
19799 19800 19802 1 120.0200517 532.790560
19801 19800 19802 1 121.3800518 83.010560
10049 19801 10949 1 109.50000 418.400000
10049 19801 10950 1 109.50000 418.400000
10049 19801 19800 1 103.70004 836.800000
10949 19801 10950 1 109.50000 418.400000
10949 19801 19800 1 103.70004 836.800000
10950 19801 19800 1 103.70004 836.800000
19800 19802 19803 1 119.8800511 375.723200
19800 19802 19804 1 120.0200517 532.790560
19803 19802 19804 1 119.8800511 375.723200
19802 19804 19805 1 119.8800511 375.723200
19802 19804 19806 1 120.0200517 532.790560
19805 19804 19806 1 119.8800511 375.723200
19804 19806 19807 1 119.8800511 375.723200
19804 19806 19808 1 120.0200517 532.790560
19807 19806 19808 1 119.8800511 375.723200
19799 19808 19806 1 120.0200517 532.790560
19799 19808 19809 1 119.8800511 375.723200
19806 19808 19809 1 119.8800511 375.723200
19810 19811 19812 1 119.8800511 375.723200
19810 19811 19820 1 119.8800511 375.723200
19812 19811 19820 1 120.0200517 532.790560
19811 19812 19813 1 121.3800518 83.010560
19811 19812 19814 1 120.0200517 532.790560
19813 19812 19814 1 121.3800518 83.010560
9191 19813 10671 1 109.50000 418.400000
9191 19813 10988 1 109.50000 418.400000
9191 19813 19812 1 103.70004 836.800000
10671 19813 10988 1 109.50000 418.400000
10671 19813 19812 1 103.70004 836.800000
10988 19813 19812 1 103.70004 836.800000
19812 19814 19815 1 119.8800511 375.723200
19812 19814 19816 1 120.0200517 532.790560
19815 19814 19816 1 119.8800511 375.723200
19814 19816 19817 1 119.8800511 375.723200
19814 19816 19818 1 120.0200517 532.790560
19817 19816 19818 1 119.8800511 375.723200
19816 19818 19819 1 119.8800511 375.723200
19816 19818 19820 1 120.0200517 532.790560
19819 19818 19820 1 119.8800511 375.723200
19811 19820 19818 1 120.0200517 532.790560
19811 19820 19821 1 119.8800511 375.723200
19818 19820 19821 1 119.8800511 375.723200
19822 19823 19824 1 119.8800511 375.723200
19822 19823 19832 1 119.8800511 375.723200
19824 19823 19832 1 120.0200517 532.790560
19823 19824 19825 1 121.3800518 83.010560
19823 19824 19826 1 120.0200517 532.790560
19825 19824 19826 1 121.3800518 83.010560
4391 19825 4392 1 109.50000 418.400000
4391 19825 7180 1 109.50000 418.400000
4391 19825 19824 1 103.70004 836.800000
4392 19825 7180 1 109.50000 418.400000
4392 19825 19824 1 103.70004 836.800000
7180 19825 19824 1 103.70004 836.800000
19824 19826 19827 1 119.8800511 375.723200
19824 19826 19828 1 120.0200517 532.790560
19827 19826 19828 1 119.8800511 375.723200
19826 19828 19829 1 119.8800511 375.723200
19826 19828 19830 1 120.0200517 532.790560
19829 19828 19830 1 119.8800511 375.723200
19828 19830 19831 1 119.8800511 375.723200
19828 19830 19832 1 120.0200517 532.790560
19831 19830 19832 1 119.8800511 375.723200
19823 19832 19830 1 120.0200517 532.790560
19823 19832 19833 1 119.8800511 375.723200
19830 19832 19833 1 119.8800511 375.723200
19834 19835 19836 1 119.8800511 375.723200
19834 19835 19844 1 119.8800511 375.723200
19836 19835 19844 1 120.0200517 532.790560
19835 19836 19837 1 121.3800518 83.010560
19835 19836 19838 1 120.0200517 532.790560
19837 19836 19838 1 121.3800518 83.010560
1644 19837 6386 1 109.50000 418.400000
1644 19837 10906 1 109.50000 418.400000
1644 19837 19836 1 103.70004 836.800000
6386 19837 10906 1 109.50000 418.400000
6386 19837 19836 1 103.70004 836.800000
10906 19837 19836 1 103.70004 836.800000
19836 19838 19839 1 119.8800511 375.723200
19836 19838 19840 1 120.0200517 532.790560
19839 19838 19840 1 119.8800511 375.723200
19838 19840 19841 1 119.8800511 375.723200
19838 19840 19842 1 120.0200517 532.790560
19841 19840 19842 1 119.8800511 375.723200
19840 19842 19843 1 119.8800511 375.723200
19840 19842 19844 1 120.0200517 532.790560
19843 19842 19844 1 119.8800511 375.723200
19835 19844 19842 1 120.0200517 532.790560
19835 19844 19845 1 119.8800511 375.723200
19842 19844 19845 1 119.8800511 375.723200
19846 19847 19848 1 119.8800511 375.723200
19846 19847 19856 1 119.8800511 375.723200
19848 19847 19856 1 120.0200517 532.790560
19847 19848 19849 1 121.3800518 83.010560
19847 19848 19850 1 120.0200517 532.790560
19849 19848 19850 1 121.3800518 83.010560
4057 19849 10441 1 109.50000 418.400000
4057 19849 10442 1 109.50000 418.400000
4057 19849 19848 1 103.70004 836.800000
10441 19849 10442 1 109.50000 418.400000
10441 19849 19848 1 103.70004 836.800000
10442 19849 19848 1 103.70004 836.800000
19848 19850 19851 1 119.8800511 375.723200
19848 19850 19852 1 120.0200517 532.790560
19851 19850 19852 1 119.8800511 375.723200
19850 19852 19853 1 119.8800511 375.723200
19850 19852 19854 1 120.0200517 532.790560
19853 19852 19854 1 119.8800511 375.723200
19852 19854 19855 1 119.8800511 375.723200
19852 19854 19856 1 120.0200517 532.790560
19855 19854 19856 1 119.8800511 375.723200
19847 19856 19854 1 120.0200517 532.790560
19847 19856 19857 1 119.8800511 375.723200
19854 19856 19857 1 119.8800511 375.723200
19858 19859 19860 1 119.8800511 375.723200
19858 19859 19868 1 119.8800511 375.723200
19860 19859 19868 1 120.0200517 532.790560
19859 19860 19861 1 121.3800518 83.010560
19859 19860 19862 1 120.0200517 532.790560
19861 19860 19862 1 121.3800518 83.010560
5135 19861 5136 1 109.50000 418.400000
5135 19861 9621 1 109.50000 418.400000
5135 19861 19860 1 103.70004 836.800000
5136 19861 9621 1 109.50000 418.400000
5136 19861 19860 1 103.70004 836.800000
9621 19861 19860 1 103.70004 836.800000
19860 19862 19863 1 119.8800511 375.723200
19860 19862 19864 1 120.0200517 532.790560
19863 19862 19864 1 119.8800511 375.723200
19862 19864 19865 1 119.8800511 375.723200
19862 19864 19866 1 120.0200517 532.790560
19865 19864 19866 1 119.8800511 375.723200
19864 19866 19867 1 119.8800511 375.723200
19864 19866 19868 1 120.0200517 532.790560
19867 19866 19868 1 119.8800511 375.723200
19859 19868 19866 1 120.0200517 532.790560
19859 19868 19869 1 119.8800511 375.723200
19866 19868 19869 1 119.8800511 375.723200
19870 19871 19872 1 119.8800511 375.723200
19870 19871 19880 1 119.8800511 375.723200
19872 19871 19880 1 120.0200517 532.790560
19871 19872 19873 1 121.3800518 83.010560
19871 19872 19874 1 120.0200517 532.790560
19873 19872 19874 1 121.3800518 83.010560
9562 19873 10461 1 109.50000 418.400000
9562 19873 10462 1 109.50000 418.400000
9562 19873 19872 1 103.70004 836.800000
10461 19873 10462 1 109.50000 418.400000
10461 19873 19872 1 103.70004 836.800000
10462 19873 19872 1 103.70004 836.800000
19872 19874 19875 1 119.8800511 375.723200
19872 19874 19876 1 120.0200517 532.790560
19875 19874 19876 1 119.8800511 375.723200
19874 19876 19877 1 119.8800511 375.723200
19874 19876 19878 1 120.0200517 532.790560
19877 19876 19878 1 119.8800511 375.723200
19876 19878 19879 1 119.8800511 375.723200
19876 19878 19880 1 120.0200517 532.790560
19879 19878 19880 1 119.8800511 375.723200
19871 19880 19878 1 120.0200517 532.790560
19871 19880 19881 1 119.8800511 375.723200
19878 19880 19881 1 119.8800511 375.723200
19882 19883 19884 1 119.8800511 375.723200
19882 19883 19892 1 119.8800511 375.723200
19884 19883 19892 1 120.0200517 532.790560
19883 19884 19885 1 121.3800518 83.010560
19883 19884 19886 1 120.0200517 532.790560
19885 19884 19886 1 121.3800518 83.010560
4825 19885 4826 1 109.50000 418.400000
4825 19885 4827 1 109.50000 418.400000
4825 19885 19884 1 103.70004 836.800000
4826 19885 4827 1 109.50000 418.400000
4826 19885 19884 1 103.70004 836.800000
4827 19885 19884 1 103.70004 836.800000
19884 19886 19887 1 119.8800511 375.723200
19884 19886 19888 1 120.0200517 532.790560
19887 19886 19888 1 119.8800511 375.723200
19886 19888 19889 1 119.8800511 375.723200
19886 19888 19890 1 120.0200517 532.790560
19889 19888 19890 1 119.8800511 375.723200
19888 19890 19891 1 119.8800511 375.723200
19888 19890 19892 1 120.0200517 532.790560
19891 19890 19892 1 119.8800511 375.723200
19883 19892 19890 1 120.0200517 532.790560
19883 19892 19893 1 119.8800511 375.723200
19890 19892 19893 1 119.8800511 375.723200
19894 19895 19896 1 119.8800511 375.723200
19894 19895 19904 1 119.8800511 375.723200
19896 19895 19904 1 120.0200517 532.790560
19895 19896 19897 1 121.3800518 83.010560
19895 19896 19898 1 120.0200517 532.790560
19897 19896 19898 1 121.3800518 83.010560
4938 19897 5866 1 109.50000 418.400000
4938 19897 7098 1 109.50000 418.400000
4938 19897 19896 1 103.70004 836.800000
5866 19897 7098 1 109.50000 418.400000
5866 19897 19896 1 103.70004 836.800000
7098 19897 19896 1 103.70004 836.800000
19896 19898 19899 1 119.8800511 375.723200
19896 19898 19900 1 120.0200517 532.790560
19899 19898 19900 1 119.8800511 375.723200
19898 19900 19901 1 119.8800511 375.723200
19898 19900 19902 1 120.0200517 532.790560
19901 19900 19902 1 119.8800511 375.723200
19900 19902 19903 1 119.8800511 375.723200
19900 19902 19904 1 120.0200517 532.790560
19903 19902 19904 1 119.8800511 375.723200
19895 19904 19902 1 120.0200517 532.790560
19895 19904 19905 1 119.8800511 375.723200
19902 19904 19905 1 119.8800511 375.723200
19906 19907 19908 1 119.8800511 375.723200
19906 19907 19916 1 119.8800511 375.723200
19908 19907 19916 1 120.0200517 532.790560
19907 19908 19909 1 121.3800518 83.010560
19907 19908 19910 1 120.0200517 532.790560
19909 19908 19910 1 121.3800518 83.010560
4221 19909 5270 1 109.50000 418.400000
4221 19909 10866 1 109.50000 418.400000
4221 19909 19908 1 103.70004 836.800000
5270 19909 10866 1 109.50000 418.400000
5270 19909 19908 1 103.70004 836.800000
10866 19909 19908 1 103.70004 836.800000
19908 19910 19911 1 119.8800511 375.723200
19908 19910 19912 1 120.0200517 532.790560
19911 19910 19912 1 119.8800511 375.723200
19910 19912 19913 1 119.8800511 375.723200
19910 19912 19914 1 120.0200517 532.790560
19913 19912 19914 1 119.8800511 375.723200
19912 19914 19915 1 119.8800511 375.723200
19912 19914 19916 1 120.0200517 532.790560
19915 19914 19916 1 119.8800511 375.723200
19907 19916 19914 1 120.0200517 532.790560
19907 19916 19917 1 119.8800511 375.723200
19914 19916 19917 1 119.8800511 375.723200
19918 19919 19920 1 119.8800511 375.723200
19918 19919 19928 1 119.8800511 375.723200
19920 19919 19928 1 120.0200517 532.790560
19919 19920 19921 1 121.3800518 83.010560
19919 19920 19922 1 120.0200517 532.790560
19921 19920 19922 1 121.3800518 83.010560
4418 19921 4623 1 109.50000 418.400000
4418 19921 4624 1 109.50000 418.400000
4418 19921 19920 1 103.70004 836.800000
4623 19921 4624 1 109.50000 418.400000
4623 19921 19920 1 103.70004 836.800000
4624 19921 19920 1 103.70004 836.800000
19920 19922 19923 1 119.8800511 375.723200
19920 19922 19924 1 120.0200517 532.790560
19923 19922 19924 1 119.8800511 375.723200
19922 19924 19925 1 119.8800511 375.723200
19922 19924 19926 1 120.0200517 532.790560
19925 19924 19926 1 119.8800511 375.723200
19924 19926 19927 1 119.8800511 375.723200
19924 19926 19928 1 120.0200517 532.790560
19927 19926 19928 1 119.8800511 375.723200
19919 19928 19926 1 120.0200517 532.790560
19919 19928 19929 1 119.8800511 375.723200
19926 19928 19929 1 119.8800511 375.723200
19930 19931 19932 1 119.8800511 375.723200
19930 19931 19940 1 119.8800511 375.723200
19932 19931 19940 1 120.0200517 532.790560
19931 19932 19933 1 121.3800518 83.010560
19931 19932 19934 1 120.0200517 532.790560
19933 19932 19934 1 121.3800518 83.010560
6303 19933 9852 1 109.50000 418.400000
6303 19933 11222 1 109.50000 418.400000
6303 19933 19932 1 103.70004 836.800000
9852 19933 11222 1 109.50000 418.400000
9852 19933 19932 1 103.70004 836.800000
11222 19933 19932 1 103.70004 836.800000
19932 19934 19935 1 119.8800511 375.723200
19932 19934 19936 1 120.0200517 532.790560
19935 19934 19936 1 119.8800511 375.723200
19934 19936 19937 1 119.8800511 375.723200
19934 19936 19938 1 120.0200517 532.790560
19937 19936 19938 1 119.8800511 375.723200
19936 19938 19939 1 119.8800511 375.723200
19936 19938 19940 1 120.0200517 532.790560
19939 19938 19940 1 119.8800511 375.723200
19931 19940 19938 1 120.0200517 532.790560
19931 19940 19941 1 119.8800511 375.723200
19938 19940 19941 1 119.8800511 375.723200
19942 19943 19944 1 119.8800511 375.723200
19942 19943 19952 1 119.8800511 375.723200
19944 19943 19952 1 120.0200517 532.790560
19943 19944 19945 1 121.3800518 83.010560
19943 19944 19946 1 120.0200517 532.790560
19945 19944 19946 1 121.3800518 83.010560
708 19945 7806 1 109.50000 418.400000
708 19945 10841 1 109.50000 418.400000
708 19945 19944 1 103.70004 836.800000
7806 19945 10841 1 109.50000 418.400000
7806 19945 19944 1 103.70004 836.800000
10841 19945 19944 1 103.70004 836.800000
19944 19946 19947 1 119.8800511 375.723200
19944 19946 19948 1 120.0200517 532.790560
19947 19946 19948 1 119.8800511 375.723200
19946 19948 19949 1 119.8800511 375.723200
19946 19948 19950 1 120.0200517 532.790560
19949 19948 19950 1 119.8800511 375.723200
19948 19950 19951 1 119.8800511 375.723200
19948 19950 19952 1 120.0200517 532.790560
19951 19950 19952 1 119.8800511 375.723200
19943 19952 19950 1 120.0200517 532.790560
19943 19952 19953 1 119.8800511 375.723200
19950 19952 19953 1 119.8800511 375.723200
19954 19955 19956 1 119.8800511 375.723200
19954 19955 19964 1 119.8800511 375.723200
19956 19955 19964 1 120.0200517 532.790560
19955 19956 19957 1 121.3800518 83.010560
19955 19956 19958 1 120.0200517 532.790560
19957 19956 19958 1 121.3800518 83.010560
7287 19957 7288 1 109.50000 418.400000
7287 19957 9990 1 109.50000 418.400000
7287 19957 19956 1 103.70004 836.800000
7288 19957 9990 1 109.50000 418.400000
7288 19957 19956 1 103.70004 836.800000
9990 19957 19956 1 103.70004 836.800000
19956 19958 19959 1 119.8800511 375.723200
19956 19958 19960 1 120.0200517 532.790560
19959 19958 19960 1 119.8800511 375.723200
19958 19960 19961 1 119.8800511 375.723200
19958 19960 19962 1 120.0200517 532.790560
19961 19960 19962 1 119.8800511 375.723200
19960 19962 19963 1 119.8800511 375.723200
19960 19962 19964 1 120.0200517 532.790560
19963 19962 19964 1 119.8800511 375.723200
19955 19964 19962 1 120.0200517 532.790560
19955 19964 19965 1 119.8800511 375.723200
19962 19964 19965 1 119.8800511 375.723200
19966 19967 19968 1 119.8800511 375.723200
19966 19967 19976 1 119.8800511 375.723200
19968 19967 19976 1 120.0200517 532.790560
19967 19968 19969 1 121.3800518 83.010560
19967 19968 19970 1 120.0200517 532.790560
19969 19968 19970 1 121.3800518 83.010560
3303 19969 3365 1 109.50000 418.400000
3303 19969 11214 1 109.50000 418.400000
3303 19969 19968 1 103.70004 836.800000
3365 19969 11214 1 109.50000 418.400000
3365 19969 19968 1 103.70004 836.800000
11214 19969 19968 1 103.70004 836.800000
19968 19970 19971 1 119.8800511 375.723200
19968 19970 19972 1 120.0200517 532.790560
19971 19970 19972 1 119.8800511 375.723200
19970 19972 19973 1 119.8800511 375.723200
19970 19972 19974 1 120.0200517 532.790560
19973 19972 19974 1 119.8800511 375.723200
19972 19974 19975 1 119.8800511 375.723200
19972 19974 19976 1 120.0200517 532.790560
19975 19974 19976 1 119.8800511 375.723200
19967 19976 19974 1 120.0200517 532.790560
19967 19976 19977 1 119.8800511 375.723200
19974 19976 19977 1 119.8800511 375.723200
19978 19979 19980 1 119.8800511 375.723200
19978 19979 19988 1 119.8800511 375.723200
19980 19979 19988 1 120.0200517 532.790560
19979 19980 19981 1 121.3800518 83.010560
19979 19980 19982 1 120.0200517 532.790560
19981 19980 19982 1 121.3800518 83.010560
245 19981 1120 1 109.50000 418.400000
245 19981 10790 1 109.50000 418.400000
245 19981 19980 1 103.70004 836.800000
1120 19981 10790 1 109.50000 418.400000
1120 19981 19980 1 103.70004 836.800000
10790 19981 19980 1 103.70004 836.800000
19980 19982 19983 1 119.8800511 375.723200
19980 19982 19984 1 120.0200517 532.790560
19983 19982 19984 1 119.8800511 375.723200
19982 19984 19985 1 119.8800511 375.723200
19982 19984 19986 1 120.0200517 532.790560
19985 19984 19986 1 119.8800511 375.723200
19984 19986 19987 1 119.8800511 375.723200
19984 19986 19988 1 120.0200517 532.790560
19987 19986 19988 1 119.8800511 375.723200
19979 19988 19986 1 120.0200517 532.790560
19979 19988 19989 1 119.8800511 375.723200
19986 19988 19989 1 119.8800511 375.723200
19990 19991 19992 1 119.8800511 375.723200
19990 19991 20000 1 119.8800511 375.723200
19992 19991 20000 1 120.0200517 532.790560
19991 19992 19993 1 121.3800518 83.010560
19991 19992 19994 1 120.0200517 532.790560
19993 19992 19994 1 121.3800518 83.010560
3478 19993 7440 1 109.50000 418.400000
3478 19993 8672 1 109.50000 418.400000
3478 19993 19992 1 103.70004 836.800000
7440 19993 8672 1 109.50000 418.400000
7440 19993 19992 1 103.70004 836.800000
8672 19993 19992 1 103.70004 836.800000
19992 19994 19995 1 119.8800511 375.723200
19992 19994 19996 1 120.0200517 532.790560
19995 19994 19996 1 119.8800511 375.723200
19994 19996 19997 1 119.8800511 375.723200
19994 19996 19998 1 120.0200517 532.790560
19997 19996 19998 1 119.8800511 375.723200
19996 19998 19999 1 119.8800511 375.723200
19996 19998 20000 1 120.0200517 532.790560
19999 19998 20000 1 119.8800511 375.723200
19991 20000 19998 1 120.0200517 532.790560
19991 20000 20001 1 119.8800511 375.723200
19998 20000 20001 1 119.8800511 375.723200
20002 20003 20004 1 119.8800511 375.723200
20002 20003 20012 1 119.8800511 375.723200
20004 20003 20012 1 120.0200517 532.790560
20003 20004 20005 1 121.3800518 83.010560
20003 20004 20006 1 120.0200517 532.790560
20005 20004 20006 1 121.3800518 83.010560
2500 20005 2921 1 109.50000 418.400000
2500 20005 7708 1 109.50000 418.400000
2500 20005 20004 1 103.70004 836.800000
2921 20005 7708 1 109.50000 418.400000
2921 20005 20004 1 103.70004 836.800000
7708 20005 20004 1 103.70004 836.800000
20004 20006 20007 1 119.8800511 375.723200
20004 20006 20008 1 120.0200517 532.790560
20007 20006 20008 1 119.8800511 375.723200
20006 20008 20009 1 119.8800511 375.723200
20006 20008 20010 1 120.0200517 532.790560
20009 20008 20010 1 119.8800511 375.723200
20008 20010 20011 1 119.8800511 375.723200
20008 20010 20012 1 120.0200517 532.790560
20011 20010 20012 1 119.8800511 375.723200
20003 20012 20010 1 120.0200517 532.790560
20003 20012 20013 1 119.8800511 375.723200
20010 20012 20013 1 119.8800511 375.723200
20014 20015 20016 1 119.8800511 375.723200
20014 20015 20024 1 119.8800511 375.723200
20016 20015 20024 1 120.0200517 532.790560
20015 20016 20017 1 121.3800518 83.010560
20015 20016 20018 1 120.0200517 532.790560
20017 20016 20018 1 121.3800518 83.010560
4018 20017 4082 1 109.50000 418.400000
4018 20017 10560 1 109.50000 418.400000
4018 20017 20016 1 103.70004 836.800000
4082 20017 10560 1 109.50000 418.400000
4082 20017 20016 1 103.70004 836.800000
10560 20017 20016 1 103.70004 836.800000
20016 20018 20019 1 119.8800511 375.723200
20016 20018 20020 1 120.0200517 532.790560
20019 20018 20020 1 119.8800511 375.723200
20018 20020 20021 1 119.8800511 375.723200
20018 20020 20022 1 120.0200517 532.790560
20021 20020 20022 1 119.8800511 375.723200
20020 20022 20023 1 119.8800511 375.723200
20020 20022 20024 1 120.0200517 532.790560
20023 20022 20024 1 119.8800511 375.723200
20015 20024 20022 1 120.0200517 532.790560
20015 20024 20025 1 119.8800511 375.723200
20022 20024 20025 1 119.8800511 375.723200
20026 20027 20028 1 119.8800511 375.723200
20026 20027 20036 1 119.8800511 375.723200
20028 20027 20036 1 120.0200517 532.790560
20027 20028 20029 1 121.3800518 83.010560
20027 20028 20030 1 120.0200517 532.790560
20029 20028 20030 1 121.3800518 83.010560
943 20029 8371 1 109.50000 418.400000
943 20029 11138 1 109.50000 418.400000
943 20029 20028 1 103.70004 836.800000
8371 20029 11138 1 109.50000 418.400000
8371 20029 20028 1 103.70004 836.800000
11138 20029 20028 1 103.70004 836.800000
20028 20030 20031 1 119.8800511 375.723200
20028 20030 20032 1 120.0200517 532.790560
20031 20030 20032 1 119.8800511 375.723200
20030 20032 20033 1 119.8800511 375.723200
20030 20032 20034 1 120.0200517 532.790560
20033 20032 20034 1 119.8800511 375.723200
20032 20034 20035 1 119.8800511 375.723200
20032 20034 20036 1 120.0200517 532.790560
20035 20034 20036 1 119.8800511 375.723200
20027 20036 20034 1 120.0200517 532.790560
20027 20036 20037 1 119.8800511 375.723200
20034 20036 20037 1 119.8800511 375.723200
20038 20039 20040 1 119.8800511 375.723200
20038 20039 20048 1 119.8800511 375.723200
20040 20039 20048 1 120.0200517 532.790560
20039 20040 20041 1 121.3800518 83.010560
20039 20040 20042 1 120.0200517 532.790560
20041 20040 20042 1 121.3800518 83.010560
1634 20041 6000 1 109.50000 418.400000
1634 20041 9904 1 109.50000 418.400000
1634 20041 20040 1 103.70004 836.800000
6000 20041 9904 1 109.50000 418.400000
6000 20041 20040 1 103.70004 836.800000
9904 20041 20040 1 103.70004 836.800000
20040 20042 20043 1 119.8800511 375.723200
20040 20042 20044 1 120.0200517 532.790560
20043 20042 20044 1 119.8800511 375.723200
20042 20044 20045 1 119.8800511 375.723200
20042 20044 20046 1 120.0200517 532.790560
20045 20044 20046 1 119.8800511 375.723200
20044 20046 20047 1 119.8800511 375.723200
20044 20046 20048 1 120.0200517 532.790560
20047 20046 20048 1 119.8800511 375.723200
20039 20048 20046 1 120.0200517 532.790560
20039 20048 20049 1 119.8800511 375.723200
20046 20048 20049 1 119.8800511 375.723200
20050 20051 20052 1 119.8800511 375.723200
20050 20051 20060 1 119.8800511 375.723200
20052 20051 20060 1 120.0200517 532.790560
20051 20052 20053 1 121.3800518 83.010560
20051 20052 20054 1 120.0200517 532.790560
20053 20052 20054 1 121.3800518 83.010560
3477 20053 3478 1 109.50000 418.400000
3477 20053 3479 1 109.50000 418.400000
3477 20053 20052 1 103.70004 836.800000
3478 20053 3479 1 109.50000 418.400000
3478 20053 20052 1 103.70004 836.800000
3479 20053 20052 1 103.70004 836.800000
20052 20054 20055 1 119.8800511 375.723200
20052 20054 20056 1 120.0200517 532.790560
20055 20054 20056 1 119.8800511 375.723200
20054 20056 20057 1 119.8800511 375.723200
20054 20056 20058 1 120.0200517 532.790560
20057 20056 20058 1 119.8800511 375.723200
20056 20058 20059 1 119.8800511 375.723200
20056 20058 20060 1 120.0200517 532.790560
20059 20058 20060 1 119.8800511 375.723200
20051 20060 20058 1 120.0200517 532.790560
20051 20060 20061 1 119.8800511 375.723200
20058 20060 20061 1 119.8800511 375.723200
20062 20063 20064 1 119.8800511 375.723200
20062 20063 20072 1 119.8800511 375.723200
20064 20063 20072 1 120.0200517 532.790560
20063 20064 20065 1 121.3800518 83.010560
20063 20064 20066 1 120.0200517 532.790560
20065 20064 20066 1 121.3800518 83.010560
4014 20065 4015 1 109.50000 418.400000
4014 20065 4016 1 109.50000 418.400000
4014 20065 20064 1 103.70004 836.800000
4015 20065 4016 1 109.50000 418.400000
4015 20065 20064 1 103.70004 836.800000
4016 20065 20064 1 103.70004 836.800000
20064 20066 20067 1 119.8800511 375.723200
20064 20066 20068 1 120.0200517 532.790560
20067 20066 20068 1 119.8800511 375.723200
20066 20068 20069 1 119.8800511 375.723200
20066 20068 20070 1 120.0200517 532.790560
20069 20068 20070 1 119.8800511 375.723200
20068 20070 20071 1 119.8800511 375.723200
20068 20070 20072 1 120.0200517 532.790560
20071 20070 20072 1 119.8800511 375.723200
20063 20072 20070 1 120.0200517 532.790560
20063 20072 20073 1 119.8800511 375.723200
20070 20072 20073 1 119.8800511 375.723200
20074 20075 20076 1 119.8800511 375.723200
20074 20075 20084 1 119.8800511 375.723200
20076 20075 20084 1 120.0200517 532.790560
20075 20076 20077 1 121.3800518 83.010560
20075 20076 20078 1 120.0200517 532.790560
20077 20076 20078 1 121.3800518 83.010560
272 20077 273 1 109.50000 418.400000
272 20077 274 1 109.50000 418.400000
272 20077 20076 1 103.70004 836.800000
273 20077 274 1 109.50000 418.400000
273 20077 20076 1 103.70004 836.800000
274 20077 20076 1 103.70004 836.800000
20076 20078 20079 1 119.8800511 375.723200
20076 20078 20080 1 120.0200517 532.790560
20079 20078 20080 1 119.8800511 375.723200
20078 20080 20081 1 119.8800511 375.723200
20078 20080 20082 1 120.0200517 532.790560
20081 20080 20082 1 119.8800511 375.723200
20080 20082 20083 1 119.8800511 375.723200
20080 20082 20084 1 120.0200517 532.790560
20083 20082 20084 1 119.8800511 375.723200
20075 20084 20082 1 120.0200517 532.790560
20075 20084 20085 1 119.8800511 375.723200
20082 20084 20085 1 119.8800511 375.723200
20086 20087 20088 1 119.8800511 375.723200
20086 20087 20096 1 119.8800511 375.723200
20088 20087 20096 1 120.0200517 532.790560
20087 20088 20089 1 121.3800518 83.010560
20087 20088 20090 1 120.0200517 532.790560
20089 20088 20090 1 121.3800518 83.010560
10034 20089 10035 1 109.50000 418.400000
10034 20089 10036 1 109.50000 418.400000
10034 20089 20088 1 103.70004 836.800000
10035 20089 10036 1 109.50000 418.400000
10035 20089 20088 1 103.70004 836.800000
10036 20089 20088 1 103.70004 836.800000
20088 20090 20091 1 119.8800511 375.723200
20088 20090 20092 1 120.0200517 532.790560
20091 20090 20092 1 119.8800511 375.723200
20090 20092 20093 1 119.8800511 375.723200
20090 20092 20094 1 120.0200517 532.790560
20093 20092 20094 1 119.8800511 375.723200
20092 20094 20095 1 119.8800511 375.723200
20092 20094 20096 1 120.0200517 532.790560
20095 20094 20096 1 119.8800511 375.723200
20087 20096 20094 1 120.0200517 532.790560
20087 20096 20097 1 119.8800511 375.723200
20094 20096 20097 1 119.8800511 375.723200
20098 20099 20100 1 119.8800511 375.723200
20098 20099 20108 1 119.8800511 375.723200
20100 20099 20108 1 120.0200517 532.790560
20099 20100 20101 1 121.3800518 83.010560
20099 20100 20102 1 120.0200517 532.790560
20101 20100 20102 1 121.3800518 83.010560
4735 20101 9701 1 109.50000 418.400000
4735 20101 10916 1 109.50000 418.400000
4735 20101 20100 1 103.70004 836.800000
9701 20101 10916 1 109.50000 418.400000
9701 20101 20100 1 103.70004 836.800000
10916 20101 20100 1 103.70004 836.800000
20100 20102 20103 1 119.8800511 375.723200
20100 20102 20104 1 120.0200517 532.790560
20103 20102 20104 1 119.8800511 375.723200
20102 20104 20105 1 119.8800511 375.723200
20102 20104 20106 1 120.0200517 532.790560
20105 20104 20106 1 119.8800511 375.723200
20104 20106 20107 1 119.8800511 375.723200
20104 20106 20108 1 120.0200517 532.790560
20107 20106 20108 1 119.8800511 375.723200
20099 20108 20106 1 120.0200517 532.790560
20099 20108 20109 1 119.8800511 375.723200
20106 20108 20109 1 119.8800511 375.723200
20110 20111 20112 1 119.8800511 375.723200
20110 20111 20120 1 119.8800511 375.723200
20112 20111 20120 1 120.0200517 532.790560
20111 20112 20113 1 121.3800518 83.010560
20111 20112 20114 1 120.0200517 532.790560
20113 20112 20114 1 121.3800518 83.010560
3914 20113 4325 1 109.50000 418.400000
3914 20113 6721 1 109.50000 418.400000
3914 20113 20112 1 103.70004 836.800000
4325 20113 6721 1 109.50000 418.400000
4325 20113 20112 1 103.70004 836.800000
6721 20113 20112 1 103.70004 836.800000
20112 20114 20115 1 119.8800511 375.723200
20112 20114 20116 1 120.0200517 532.790560
20115 20114 20116 1 119.8800511 375.723200
20114 20116 20117 1 119.8800511 375.723200
20114 20116 20118 1 120.0200517 532.790560
20117 20116 20118 1 119.8800511 375.723200
20116 20118 20119 1 119.8800511 375.723200
20116 20118 20120 1 120.0200517 532.790560
20119 20118 20120 1 119.8800511 375.723200
20111 20120 20118 1 120.0200517 532.790560
20111 20120 20121 1 119.8800511 375.723200
20118 20120 20121 1 119.8800511 375.723200
20122 20123 20124 1 119.8800511 375.723200
20122 20123 20132 1 119.8800511 375.723200
20124 20123 20132 1 120.0200517 532.790560
20123 20124 20125 1 121.3800518 83.010560
20123 20124 20126 1 120.0200517 532.790560
20125 20124 20126 1 121.3800518 83.010560
2045 20125 6197 1 109.50000 418.400000
2045 20125 6198 1 109.50000 418.400000
2045 20125 20124 1 103.70004 836.800000
6197 20125 6198 1 109.50000 418.400000
6197 20125 20124 1 103.70004 836.800000
6198 20125 20124 1 103.70004 836.800000
20124 20126 20127 1 119.8800511 375.723200
20124 20126 20128 1 120.0200517 532.790560
20127 20126 20128 1 119.8800511 375.723200
20126 20128 20129 1 119.8800511 375.723200
20126 20128 20130 1 120.0200517 532.790560
20129 20128 20130 1 119.8800511 375.723200
20128 20130 20131 1 119.8800511 375.723200
20128 20130 20132 1 120.0200517 532.790560
20131 20130 20132 1 119.8800511 375.723200
20123 20132 20130 1 120.0200517 532.790560
20123 20132 20133 1 119.8800511 375.723200
20130 20132 20133 1 119.8800511 375.723200
20134 20135 20136 1 119.8800511 375.723200
20134 20135 20144 1 119.8800511 375.723200
20136 20135 20144 1 120.0200517 532.790560
20135 20136 20137 1 121.3800518 83.010560
20135 20136 20138 1 120.0200517 532.790560
20137 20136 20138 1 121.3800518 83.010560
4707 20137 5374 1 109.50000 418.400000
4707 20137 7666 1 109.50000 418.400000
4707 20137 20136 1 103.70004 836.800000
5374 20137 7666 1 109.50000 418.400000
5374 20137 20136 1 103.70004 836.800000
7666 20137 20136 1 103.70004 836.800000
20136 20138 20139 1 119.8800511 375.723200
20136 20138 20140 1 120.0200517 532.790560
20139 20138 20140 1 119.8800511 375.723200
20138 20140 20141 1 119.8800511 375.723200
20138 20140 20142 1 120.0200517 532.790560
20141 20140 20142 1 119.8800511 375.723200
20140 20142 20143 1 119.8800511 375.723200
20140 20142 20144 1 120.0200517 532.790560
20143 20142 20144 1 119.8800511 375.723200
20135 20144 20142 1 120.0200517 532.790560
20135 20144 20145 1 119.8800511 375.723200
20142 20144 20145 1 119.8800511 375.723200
20146 20147 20148 1 119.8800511 375.723200
20146 20147 20156 1 119.8800511 375.723200
20148 20147 20156 1 120.0200517 532.790560
20147 20148 20149 1 121.3800518 83.010560
20147 20148 20150 1 120.0200517 532.790560
20149 20148 20150 1 121.3800518 83.010560
9460 20149 10148 1 109.50000 418.400000
9460 20149 10149 1 109.50000 418.400000
9460 20149 20148 1 103.70004 836.800000
10148 20149 10149 1 109.50000 418.400000
10148 20149 20148 1 103.70004 836.800000
10149 20149 20148 1 103.70004 836.800000
20148 20150 20151 1 119.8800511 375.723200
20148 20150 20152 1 120.0200517 532.790560
20151 20150 20152 1 119.8800511 375.723200
20150 20152 20153 1 119.8800511 375.723200
20150 20152 20154 1 120.0200517 532.790560
20153 20152 20154 1 119.8800511 375.723200
20152 20154 20155 1 119.8800511 375.723200
20152 20154 20156 1 120.0200517 532.790560
20155 20154 20156 1 119.8800511 375.723200
20147 20156 20154 1 120.0200517 532.790560
20147 20156 20157 1 119.8800511 375.723200
20154 20156 20157 1 119.8800511 375.723200
20158 20159 20160 1 119.8800511 375.723200
20158 20159 20168 1 119.8800511 375.723200
20160 20159 20168 1 120.0200517 532.790560
20159 20160 20161 1 121.3800518 83.010560
20159 20160 20162 1 120.0200517 532.790560
20161 20160 20162 1 121.3800518 83.010560
1286 20161 1288 1 109.50000 418.400000
1286 20161 9978 1 109.50000 418.400000
1286 20161 20160 1 103.70004 836.800000
1288 20161 9978 1 109.50000 418.400000
1288 20161 20160 1 103.70004 836.800000
9978 20161 20160 1 103.70004 836.800000
20160 20162 20163 1 119.8800511 375.723200
20160 20162 20164 1 120.0200517 532.790560
20163 20162 20164 1 119.8800511 375.723200
20162 20164 20165 1 119.8800511 375.723200
20162 20164 20166 1 120.0200517 532.790560
20165 20164 20166 1 119.8800511 375.723200
20164 20166 20167 1 119.8800511 375.723200
20164 20166 20168 1 120.0200517 532.790560
20167 20166 20168 1 119.8800511 375.723200
20159 20168 20166 1 120.0200517 532.790560
20159 20168 20169 1 119.8800511 375.723200
20166 20168 20169 1 119.8800511 375.723200
20170 20171 20172 1 119.8800511 375.723200
20170 20171 20180 1 119.8800511 375.723200
20172 20171 20180 1 120.0200517 532.790560
20171 20172 20173 1 121.3800518 83.010560
20171 20172 20174 1 120.0200517 532.790560
20173 20172 20174 1 121.3800518 83.010560
4534 20173 4535 1 109.50000 418.400000
4534 20173 11144 1 109.50000 418.400000
4534 20173 20172 1 103.70004 836.800000
4535 20173 11144 1 109.50000 418.400000
4535 20173 20172 1 103.70004 836.800000
11144 20173 20172 1 103.70004 836.800000
20172 20174 20175 1 119.8800511 375.723200
20172 20174 20176 1 120.0200517 532.790560
20175 20174 20176 1 119.8800511 375.723200
20174 20176 20177 1 119.8800511 375.723200
20174 20176 20178 1 120.0200517 532.790560
20177 20176 20178 1 119.8800511 375.723200
20176 20178 20179 1 119.8800511 375.723200
20176 20178 20180 1 120.0200517 532.790560
20179 20178 20180 1 119.8800511 375.723200
20171 20180 20178 1 120.0200517 532.790560
20171 20180 20181 1 119.8800511 375.723200
20178 20180 20181 1 119.8800511 375.723200
20182 20183 20184 1 119.8800511 375.723200
20182 20183 20192 1 119.8800511 375.723200
20184 20183 20192 1 120.0200517 532.790560
20183 20184 20185 1 121.3800518 83.010560
20183 20184 20186 1 120.0200517 532.790560
20185 20184 20186 1 121.3800518 83.010560
8289 20185 9035 1 109.50000 418.400000
8289 20185 11206 1 109.50000 418.400000
8289 20185 20184 1 103.70004 836.800000
9035 20185 11206 1 109.50000 418.400000
9035 20185 20184 1 103.70004 836.800000
11206 20185 20184 1 103.70004 836.800000
20184 20186 20187 1 119.8800511 375.723200
20184 20186 20188 1 120.0200517 532.790560
20187 20186 20188 1 119.8800511 375.723200
20186 20188 20189 1 119.8800511 375.723200
20186 20188 20190 1 120.0200517 532.790560
20189 20188 20190 1 119.8800511 375.723200
20188 20190 20191 1 119.8800511 375.723200
20188 20190 20192 1 120.0200517 532.790560
20191 20190 20192 1 119.8800511 375.723200
20183 20192 20190 1 120.0200517 532.790560
20183 20192 20193 1 119.8800511 375.723200
20190 20192 20193 1 119.8800511 375.723200
20194 20195 20196 1 119.8800511 375.723200
20194 20195 20204 1 119.8800511 375.723200
20196 20195 20204 1 120.0200517 532.790560
20195 20196 20197 1 121.3800518 83.010560
20195 20196 20198 1 120.0200517 532.790560
20197 20196 20198 1 121.3800518 83.010560
459 20197 460 1 109.50000 418.400000
459 20197 11238 1 109.50000 418.400000
459 20197 20196 1 103.70004 836.800000
460 20197 11238 1 109.50000 418.400000
460 20197 20196 1 103.70004 836.800000
11238 20197 20196 1 103.70004 836.800000
20196 20198 20199 1 119.8800511 375.723200
20196 20198 20200 1 120.0200517 532.790560
20199 20198 20200 1 119.8800511 375.723200
20198 20200 20201 1 119.8800511 375.723200
20198 20200 20202 1 120.0200517 532.790560
20201 20200 20202 1 119.8800511 375.723200
20200 20202 20203 1 119.8800511 375.723200
20200 20202 20204 1 120.0200517 532.790560
20203 20202 20204 1 119.8800511 375.723200
20195 20204 20202 1 120.0200517 532.790560
20195 20204 20205 1 119.8800511 375.723200
20202 20204 20205 1 119.8800511 375.723200
20206 20207 20208 1 119.8800511 375.723200
20206 20207 20216 1 119.8800511 375.723200
20208 20207 20216 1 120.0200517 532.790560
20207 20208 20209 1 121.3800518 83.010560
20207 20208 20210 1 120.0200517 532.790560
20209 20208 20210 1 121.3800518 83.010560
242 20209 243 1 109.50000 418.400000
242 20209 244 1 109.50000 418.400000
242 20209 20208 1 103.70004 836.800000
243 20209 244 1 109.50000 418.400000
243 20209 20208 1 103.70004 836.800000
244 20209 20208 1 103.70004 836.800000
20208 20210 20211 1 119.8800511 375.723200
20208 20210 20212 1 120.0200517 532.790560
20211 20210 20212 1 119.8800511 375.723200
20210 20212 20213 1 119.8800511 375.723200
20210 20212 20214 1 120.0200517 532.790560
20213 20212 20214 1 119.8800511 375.723200
20212 20214 20215 1 119.8800511 375.723200
20212 20214 20216 1 120.0200517 532.790560
20215 20214 20216 1 119.8800511 375.723200
20207 20216 20214 1 120.0200517 532.790560
20207 20216 20217 1 119.8800511 375.723200
20214 20216 20217 1 119.8800511 375.723200
20218 20219 20220 1 119.8800511 375.723200
20218 20219 20228 1 119.8800511 375.723200
20220 20219 20228 1 120.0200517 532.790560
20219 20220 20221 1 121.3800518 83.010560
20219 20220 20222 1 120.0200517 532.790560
20221 20220 20222 1 121.3800518 83.010560
799 20221 1269 1 109.50000 418.400000
799 20221 8876 1 109.50000 418.400000
799 20221 20220 1 103.70004 836.800000
1269 20221 8876 1 109.50000 418.400000
1269 20221 20220 1 103.70004 836.800000
8876 20221 20220 1 103.70004 836.800000
20220 20222 20223 1 119.8800511 375.723200
20220 20222 20224 1 120.0200517 532.790560
20223 20222 20224 1 119.8800511 375.723200
20222 20224 20225 1 119.8800511 375.723200
20222 20224 20226 1 120.0200517 532.790560
20225 20224 20226 1 119.8800511 375.723200
20224 20226 20227 1 119.8800511 375.723200
20224 20226 20228 1 120.0200517 532.790560
20227 20226 20228 1 119.8800511 375.723200
20219 20228 20226 1 120.0200517 532.790560
20219 20228 20229 1 119.8800511 375.723200
20226 20228 20229 1 119.8800511 375.723200
20230 20231 20232 1 119.8800511 375.723200
20230 20231 20240 1 119.8800511 375.723200
20232 20231 20240 1 120.0200517 532.790560
20231 20232 20233 1 121.3800518 83.010560
20231 20232 20234 1 120.0200517 532.790560
20233 20232 20234 1 121.3800518 83.010560
8368 20233 8369 1 109.50000 418.400000
8368 20233 8370 1 109.50000 418.400000
8368 20233 20232 1 103.70004 836.800000
8369 20233 8370 1 109.50000 418.400000
8369 20233 20232 1 103.70004 836.800000
8370 20233 20232 1 103.70004 836.800000
20232 20234 20235 1 119.8800511 375.723200
20232 20234 20236 1 120.0200517 532.790560
20235 20234 20236 1 119.8800511 375.723200
20234 20236 20237 1 119.8800511 375.723200
20234 20236 20238 1 120.0200517 532.790560
20237 20236 20238 1 119.8800511 375.723200
20236 20238 20239 1 119.8800511 375.723200
20236 20238 20240 1 120.0200517 532.790560
20239 20238 20240 1 119.8800511 375.723200
20231 20240 20238 1 120.0200517 532.790560
20231 20240 20241 1 119.8800511 375.723200
20238 20240 20241 1 119.8800511 375.723200
20242 20243 20244 1 119.8800511 375.723200
20242 20243 20252 1 119.8800511 375.723200
20244 20243 20252 1 120.0200517 532.790560
20243 20244 20245 1 121.3800518 83.010560
20243 20244 20246 1 120.0200517 532.790560
20245 20244 20246 1 121.3800518 83.010560
7066 20245 7470 1 109.50000 418.400000
7066 20245 11196 1 109.50000 418.400000
7066 20245 20244 1 103.70004 836.800000
7470 20245 11196 1 109.50000 418.400000
7470 20245 20244 1 103.70004 836.800000
11196 20245 20244 1 103.70004 836.800000
20244 20246 20247 1 119.8800511 375.723200
20244 20246 20248 1 120.0200517 532.790560
20247 20246 20248 1 119.8800511 375.723200
20246 20248 20249 1 119.8800511 375.723200
20246 20248 20250 1 120.0200517 532.790560
20249 20248 20250 1 119.8800511 375.723200
20248 20250 20251 1 119.8800511 375.723200
20248 20250 20252 1 120.0200517 532.790560
20251 20250 20252 1 119.8800511 375.723200
20243 20252 20250 1 120.0200517 532.790560
20243 20252 20253 1 119.8800511 375.723200
20250 20252 20253 1 119.8800511 375.723200
20254 20255 20256 1 119.8800511 375.723200
20254 20255 20264 1 119.8800511 375.723200
20256 20255 20264 1 120.0200517 532.790560
20255 20256 20257 1 121.3800518 83.010560
20255 20256 20258 1 120.0200517 532.790560
20257 20256 20258 1 121.3800518 83.010560
6517 20257 6519 1 109.50000 418.400000
6517 20257 7094 1 109.50000 418.400000
6517 20257 20256 1 103.70004 836.800000
6519 20257 7094 1 109.50000 418.400000
6519 20257 20256 1 103.70004 836.800000
7094 20257 20256 1 103.70004 836.800000
20256 20258 20259 1 119.8800511 375.723200
20256 20258 20260 1 120.0200517 532.790560
20259 20258 20260 1 119.8800511 375.723200
20258 20260 20261 1 119.8800511 375.723200
20258 20260 20262 1 120.0200517 532.790560
20261 20260 20262 1 119.8800511 375.723200
20260 20262 20263 1 119.8800511 375.723200
20260 20262 20264 1 120.0200517 532.790560
20263 20262 20264 1 119.8800511 375.723200
20255 20264 20262 1 120.0200517 532.790560
20255 20264 20265 1 119.8800511 375.723200
20262 20264 20265 1 119.8800511 375.723200
20266 20267 20268 1 119.8800511 375.723200
20266 20267 20276 1 119.8800511 375.723200
20268 20267 20276 1 120.0200517 532.790560
20267 20268 20269 1 121.3800518 83.010560
20267 20268 20270 1 120.0200517 532.790560
20269 20268 20270 1 121.3800518 83.010560
1829 20269 1830 1 109.50000 418.400000
1829 20269 1831 1 109.50000 418.400000
1829 20269 20268 1 103.70004 836.800000
1830 20269 1831 1 109.50000 418.400000
1830 20269 20268 1 103.70004 836.800000
1831 20269 20268 1 103.70004 836.800000
20268 20270 20271 1 119.8800511 375.723200
20268 20270 20272 1 120.0200517 532.790560
20271 20270 20272 1 119.8800511 375.723200
20270 20272 20273 1 119.8800511 375.723200
20270 20272 20274 1 120.0200517 532.790560
20273 20272 20274 1 119.8800511 375.723200
20272 20274 20275 1 119.8800511 375.723200
20272 20274 20276 1 120.0200517 532.790560
20275 20274 20276 1 119.8800511 375.723200
20267 20276 20274 1 120.0200517 532.790560
20267 20276 20277 1 119.8800511 375.723200
20274 20276 20277 1 119.8800511 375.723200
20278 20279 20280 1 119.8800511 375.723200
20278 20279 20288 1 119.8800511 375.723200
20280 20279 20288 1 120.0200517 532.790560
20279 20280 20281 1 121.3800518 83.010560
20279 20280 20282 1 120.0200517 532.790560
20281 20280 20282 1 121.3800518 83.010560
272 20281 6225 1 109.50000 418.400000
272 20281 9827 1 109.50000 418.400000
272 20281 20280 1 103.70004 836.800000
6225 20281 9827 1 109.50000 418.400000
6225 20281 20280 1 103.70004 836.800000
9827 20281 20280 1 103.70004 836.800000
20280 20282 20283 1 119.8800511 375.723200
20280 20282 20284 1 120.0200517 532.790560
20283 20282 20284 1 119.8800511 375.723200
20282 20284 20285 1 119.8800511 375.723200
20282 20284 20286 1 120.0200517 532.790560
20285 20284 20286 1 119.8800511 375.723200
20284 20286 20287 1 119.8800511 375.723200
20284 20286 20288 1 120.0200517 532.790560
20287 20286 20288 1 119.8800511 375.723200
20279 20288 20286 1 120.0200517 532.790560
20279 20288 20289 1 119.8800511 375.723200
20286 20288 20289 1 119.8800511 375.723200
20290 20291 20292 1 119.8800511 375.723200
20290 20291 20300 1 119.8800511 375.723200
20292 20291 20300 1 120.0200517 532.790560
20291 20292 20293 1 121.3800518 83.010560
20291 20292 20294 1 120.0200517 532.790560
20293 20292 20294 1 121.3800518 83.010560
4108 20293 4109 1 109.50000 418.400000
4108 20293 4110 1 109.50000 418.400000
4108 20293 20292 1 103.70004 836.800000
4109 20293 4110 1 109.50000 418.400000
4109 20293 20292 1 103.70004 836.800000
4110 20293 20292 1 103.70004 836.800000
20292 20294 20295 1 119.8800511 375.723200
20292 20294 20296 1 120.0200517 532.790560
20295 20294 20296 1 119.8800511 375.723200
20294 20296 20297 1 119.8800511 375.723200
20294 20296 20298 1 120.0200517 532.790560
20297 20296 20298 1 119.8800511 375.723200
20296 20298 20299 1 119.8800511 375.723200
20296 20298 20300 1 120.0200517 532.790560
20299 20298 20300 1 119.8800511 375.723200
20291 20300 20298 1 120.0200517 532.790560
20291 20300 20301 1 119.8800511 375.723200
20298 20300 20301 1 119.8800511 375.723200
20302 20303 20304 1 119.8800511 375.723200
20302 20303 20312 1 119.8800511 375.723200
20304 20303 20312 1 120.0200517 532.790560
20303 20304 20305 1 121.3800518 83.010560
20303 20304 20306 1 120.0200517 532.790560
20305 20304 20306 1 121.3800518 83.010560
4848 20305 5735 1 109.50000 418.400000
4848 20305 7309 1 109.50000 418.400000
4848 20305 20304 1 103.70004 836.800000
5735 20305 7309 1 109.50000 418.400000
5735 20305 20304 1 103.70004 836.800000
7309 20305 20304 1 103.70004 836.800000
20304 20306 20307 1 119.8800511 375.723200
20304 20306 20308 1 120.0200517 532.790560
20307 20306 20308 1 119.8800511 375.723200
20306 20308 20309 1 119.8800511 375.723200
20306 20308 20310 1 120.0200517 532.790560
20309 20308 20310 1 119.8800511 375.723200
20308 20310 20311 1 119.8800511 375.723200
20308 20310 20312 1 120.0200517 532.790560
20311 20310 20312 1 119.8800511 375.723200
20303 20312 20310 1 120.0200517 532.790560
20303 20312 20313 1 119.8800511 375.723200
20310 20312 20313 1 119.8800511 375.723200
20314 20315 20316 1 119.8800511 375.723200
20314 20315 20324 1 119.8800511 375.723200
20316 20315 20324 1 120.0200517 532.790560
20315 20316 20317 1 121.3800518 83.010560
20315 20316 20318 1 120.0200517 532.790560
20317 20316 20318 1 121.3800518 83.010560
125 20317 3371 1 109.50000 418.400000
125 20317 11154 1 109.50000 418.400000
125 20317 20316 1 103.70004 836.800000
3371 20317 11154 1 109.50000 418.400000
3371 20317 20316 1 103.70004 836.800000
11154 20317 20316 1 103.70004 836.800000
20316 20318 20319 1 119.8800511 375.723200
20316 20318 20320 1 120.0200517 532.790560
20319 20318 20320 1 119.8800511 375.723200
20318 20320 20321 1 119.8800511 375.723200
20318 20320 20322 1 120.0200517 532.790560
20321 20320 20322 1 119.8800511 375.723200
20320 20322 20323 1 119.8800511 375.723200
20320 20322 20324 1 120.0200517 532.790560
20323 20322 20324 1 119.8800511 375.723200
20315 20324 20322 1 120.0200517 532.790560
20315 20324 20325 1 119.8800511 375.723200
20322 20324 20325 1 119.8800511 375.723200
20326 20327 20328 1 119.8800511 375.723200
20326 20327 20336 1 119.8800511 375.723200
20328 20327 20336 1 120.0200517 532.790560
20327 20328 20329 1 121.3800518 83.010560
20327 20328 20330 1 120.0200517 532.790560
20329 20328 20330 1 121.3800518 83.010560
10124 20329 11062 1 109.50000 418.400000
10124 20329 11148 1 109.50000 418.400000
10124 20329 20328 1 103.70004 836.800000
11062 20329 11148 1 109.50000 418.400000
11062 20329 20328 1 103.70004 836.800000
11148 20329 20328 1 103.70004 836.800000
20328 20330 20331 1 119.8800511 375.723200
20328 20330 20332 1 120.0200517 532.790560
20331 20330 20332 1 119.8800511 375.723200
20330 20332 20333 1 119.8800511 375.723200
20330 20332 20334 1 120.0200517 532.790560
20333 20332 20334 1 119.8800511 375.723200
20332 20334 20335 1 119.8800511 375.723200
20332 20334 20336 1 120.0200517 532.790560
20335 20334 20336 1 119.8800511 375.723200
20327 20336 20334 1 120.0200517 532.790560
20327 20336 20337 1 119.8800511 375.723200
20334 20336 20337 1 119.8800511 375.723200
20338 20339 20340 1 119.8800511 375.723200
20338 20339 20348 1 119.8800511 375.723200
20340 20339 20348 1 120.0200517 532.790560
20339 20340 20341 1 121.3800518 83.010560
20339 20340 20342 1 120.0200517 532.790560
20341 20340 20342 1 121.3800518 83.010560
1751 20341 4604 1 109.50000 418.400000
1751 20341 10764 1 109.50000 418.400000
1751 20341 20340 1 103.70004 836.800000
4604 20341 10764 1 109.50000 418.400000
4604 20341 20340 1 103.70004 836.800000
10764 20341 20340 1 103.70004 836.800000
20340 20342 20343 1 119.8800511 375.723200
20340 20342 20344 1 120.0200517 532.790560
20343 20342 20344 1 119.8800511 375.723200
20342 20344 20345 1 119.8800511 375.723200
20342 20344 20346 1 120.0200517 532.790560
20345 20344 20346 1 119.8800511 375.723200
20344 20346 20347 1 119.8800511 375.723200
20344 20346 20348 1 120.0200517 532.790560
20347 20346 20348 1 119.8800511 375.723200
20339 20348 20346 1 120.0200517 532.790560
20339 20348 20349 1 119.8800511 375.723200
20346 20348 20349 1 119.8800511 375.723200
20350 20351 20352 1 119.8800511 375.723200
20350 20351 20360 1 119.8800511 375.723200
20352 20351 20360 1 120.0200517 532.790560
20351 20352 20353 1 121.3800518 83.010560
20351 20352 20354 1 120.0200517 532.790560
20353 20352 20354 1 121.3800518 83.010560
1231 20353 3418 1 109.50000 418.400000
1231 20353 11223 1 109.50000 418.400000
1231 20353 20352 1 103.70004 836.800000
3418 20353 11223 1 109.50000 418.400000
3418 20353 20352 1 103.70004 836.800000
11223 20353 20352 1 103.70004 836.800000
20352 20354 20355 1 119.8800511 375.723200
20352 20354 20356 1 120.0200517 532.790560
20355 20354 20356 1 119.8800511 375.723200
20354 20356 20357 1 119.8800511 375.723200
20354 20356 20358 1 120.0200517 532.790560
20357 20356 20358 1 119.8800511 375.723200
20356 20358 20359 1 119.8800511 375.723200
20356 20358 20360 1 120.0200517 532.790560
20359 20358 20360 1 119.8800511 375.723200
20351 20360 20358 1 120.0200517 532.790560
20351 20360 20361 1 119.8800511 375.723200
20358 20360 20361 1 119.8800511 375.723200
20362 20363 20364 1 119.8800511 375.723200
20362 20363 20372 1 119.8800511 375.723200
20364 20363 20372 1 120.0200517 532.790560
20363 20364 20365 1 121.3800518 83.010560
20363 20364 20366 1 120.0200517 532.790560
20365 20364 20366 1 121.3800518 83.010560
2217 20365 4435 1 109.50000 418.400000
2217 20365 11239 1 109.50000 418.400000
2217 20365 20364 1 103.70004 836.800000
4435 20365 11239 1 109.50000 418.400000
4435 20365 20364 1 103.70004 836.800000
11239 20365 20364 1 103.70004 836.800000
20364 20366 20367 1 119.8800511 375.723200
20364 20366 20368 1 120.0200517 532.790560
20367 20366 20368 1 119.8800511 375.723200
20366 20368 20369 1 119.8800511 375.723200
20366 20368 20370 1 120.0200517 532.790560
20369 20368 20370 1 119.8800511 375.723200
20368 20370 20371 1 119.8800511 375.723200
20368 20370 20372 1 120.0200517 532.790560
20371 20370 20372 1 119.8800511 375.723200
20363 20372 20370 1 120.0200517 532.790560
20363 20372 20373 1 119.8800511 375.723200
20370 20372 20373 1 119.8800511 375.723200
20374 20375 20376 1 119.8800511 375.723200
20374 20375 20384 1 119.8800511 375.723200
20376 20375 20384 1 120.0200517 532.790560
20375 20376 20377 1 121.3800518 83.010560
20375 20376 20378 1 120.0200517 532.790560
20377 20376 20378 1 121.3800518 83.010560
3845 20377 4340 1 109.50000 418.400000
3845 20377 9010 1 109.50000 418.400000
3845 20377 20376 1 103.70004 836.800000
4340 20377 9010 1 109.50000 418.400000
4340 20377 20376 1 103.70004 836.800000
9010 20377 20376 1 103.70004 836.800000
20376 20378 20379 1 119.8800511 375.723200
20376 20378 20380 1 120.0200517 532.790560
20379 20378 20380 1 119.8800511 375.723200
20378 20380 20381 1 119.8800511 375.723200
20378 20380 20382 1 120.0200517 532.790560
20381 20380 20382 1 119.8800511 375.723200
20380 20382 20383 1 119.8800511 375.723200
20380 20382 20384 1 120.0200517 532.790560
20383 20382 20384 1 119.8800511 375.723200
20375 20384 20382 1 120.0200517 532.790560
20375 20384 20385 1 119.8800511 375.723200
20382 20384 20385 1 119.8800511 375.723200
20386 20387 20388 1 119.8800511 375.723200
20386 20387 20396 1 119.8800511 375.723200
20388 20387 20396 1 120.0200517 532.790560
20387 20388 20389 1 121.3800518 83.010560
20387 20388 20390 1 120.0200517 532.790560
20389 20388 20390 1 121.3800518 83.010560
6425 20389 10611 1 109.50000 418.400000
6425 20389 11009 1 109.50000 418.400000
6425 20389 20388 1 103.70004 836.800000
10611 20389 11009 1 109.50000 418.400000
10611 20389 20388 1 103.70004 836.800000
11009 20389 20388 1 103.70004 836.800000
20388 20390 20391 1 119.8800511 375.723200
20388 20390 20392 1 120.0200517 532.790560
20391 20390 20392 1 119.8800511 375.723200
20390 20392 20393 1 119.8800511 375.723200
20390 20392 20394 1 120.0200517 532.790560
20393 20392 20394 1 119.8800511 375.723200
20392 20394 20395 1 119.8800511 375.723200
20392 20394 20396 1 120.0200517 532.790560
20395 20394 20396 1 119.8800511 375.723200
20387 20396 20394 1 120.0200517 532.790560
20387 20396 20397 1 119.8800511 375.723200
20394 20396 20397 1 119.8800511 375.723200
20398 20399 20400 1 119.8800511 375.723200
20398 20399 20408 1 119.8800511 375.723200
20400 20399 20408 1 120.0200517 532.790560
20399 20400 20401 1 121.3800518 83.010560
20399 20400 20402 1 120.0200517 532.790560
20401 20400 20402 1 121.3800518 83.010560
4398 20401 4399 1 109.50000 418.400000
4398 20401 4400 1 109.50000 418.400000
4398 20401 20400 1 103.70004 836.800000
4399 20401 4400 1 109.50000 418.400000
4399 20401 20400 1 103.70004 836.800000
4400 20401 20400 1 103.70004 836.800000
20400 20402 20403 1 119.8800511 375.723200
20400 20402 20404 1 120.0200517 532.790560
20403 20402 20404 1 119.8800511 375.723200
20402 20404 20405 1 119.8800511 375.723200
20402 20404 20406 1 120.0200517 532.790560
20405 20404 20406 1 119.8800511 375.723200
20404 20406 20407 1 119.8800511 375.723200
20404 20406 20408 1 120.0200517 532.790560
20407 20406 20408 1 119.8800511 375.723200
20399 20408 20406 1 120.0200517 532.790560
20399 20408 20409 1 119.8800511 375.723200
20406 20408 20409 1 119.8800511 375.723200
20410 20411 20412 1 119.8800511 375.723200
20410 20411 20420 1 119.8800511 375.723200
20412 20411 20420 1 120.0200517 532.790560
20411 20412 20413 1 121.3800518 83.010560
20411 20412 20414 1 120.0200517 532.790560
20413 20412 20414 1 121.3800518 83.010560
3492 20413 3493 1 109.50000 418.400000
3492 20413 7714 1 109.50000 418.400000
3492 20413 20412 1 103.70004 836.800000
3493 20413 7714 1 109.50000 418.400000
3493 20413 20412 1 103.70004 836.800000
7714 20413 20412 1 103.70004 836.800000
20412 20414 20415 1 119.8800511 375.723200
20412 20414 20416 1 120.0200517 532.790560
20415 20414 20416 1 119.8800511 375.723200
20414 20416 20417 1 119.8800511 375.723200
20414 20416 20418 1 120.0200517 532.790560
20417 20416 20418 1 119.8800511 375.723200
20416 20418 20419 1 119.8800511 375.723200
20416 20418 20420 1 120.0200517 532.790560
20419 20418 20420 1 119.8800511 375.723200
20411 20420 20418 1 120.0200517 532.790560
20411 20420 20421 1 119.8800511 375.723200
20418 20420 20421 1 119.8800511 375.723200
20422 20423 20424 1 119.8800511 375.723200
20422 20423 20432 1 119.8800511 375.723200
20424 20423 20432 1 120.0200517 532.790560
20423 20424 20425 1 121.3800518 83.010560
20423 20424 20426 1 120.0200517 532.790560
20425 20424 20426 1 121.3800518 83.010560
6452 20425 9581 1 109.50000 418.400000
6452 20425 10744 1 109.50000 418.400000
6452 20425 20424 1 103.70004 836.800000
9581 20425 10744 1 109.50000 418.400000
9581 20425 20424 1 103.70004 836.800000
10744 20425 20424 1 103.70004 836.800000
20424 20426 20427 1 119.8800511 375.723200
20424 20426 20428 1 120.0200517 532.790560
20427 20426 20428 1 119.8800511 375.723200
20426 20428 20429 1 119.8800511 375.723200
20426 20428 20430 1 120.0200517 532.790560
20429 20428 20430 1 119.8800511 375.723200
20428 20430 20431 1 119.8800511 375.723200
20428 20430 20432 1 120.0200517 532.790560
20431 20430 20432 1 119.8800511 375.723200
20423 20432 20430 1 120.0200517 532.790560
20423 20432 20433 1 119.8800511 375.723200
20430 20432 20433 1 119.8800511 375.723200
20434 20435 20436 1 119.8800511 375.723200
20434 20435 20444 1 119.8800511 375.723200
20436 20435 20444 1 120.0200517 532.790560
20435 20436 20437 1 121.3800518 83.010560
20435 20436 20438 1 120.0200517 532.790560
20437 20436 20438 1 121.3800518 83.010560
2651 20437 2652 1 109.50000 418.400000
2651 20437 2653 1 109.50000 418.400000
2651 20437 20436 1 103.70004 836.800000
2652 20437 2653 1 109.50000 418.400000
2652 20437 20436 1 103.70004 836.800000
2653 20437 20436 1 103.70004 836.800000
20436 20438 20439 1 119.8800511 375.723200
20436 20438 20440 1 120.0200517 532.790560
20439 20438 20440 1 119.8800511 375.723200
20438 20440 20441 1 119.8800511 375.723200
20438 20440 20442 1 120.0200517 532.790560
20441 20440 20442 1 119.8800511 375.723200
20440 20442 20443 1 119.8800511 375.723200
20440 20442 20444 1 120.0200517 532.790560
20443 20442 20444 1 119.8800511 375.723200
20435 20444 20442 1 120.0200517 532.790560
20435 20444 20445 1 119.8800511 375.723200
20442 20444 20445 1 119.8800511 375.723200
20446 20447 20448 1 119.8800511 375.723200
20446 20447 20456 1 119.8800511 375.723200
20448 20447 20456 1 120.0200517 532.790560
20447 20448 20449 1 121.3800518 83.010560
20447 20448 20450 1 120.0200517 532.790560
20449 20448 20450 1 121.3800518 83.010560
10086 20449 10159 1 109.50000 418.400000
10086 20449 10357 1 109.50000 418.400000
10086 20449 20448 1 103.70004 836.800000
10159 20449 10357 1 109.50000 418.400000
10159 20449 20448 1 103.70004 836.800000
10357 20449 20448 1 103.70004 836.800000
20448 20450 20451 1 119.8800511 375.723200
20448 20450 20452 1 120.0200517 532.790560
20451 20450 20452 1 119.8800511 375.723200
20450 20452 20453 1 119.8800511 375.723200
20450 20452 20454 1 120.0200517 532.790560
20453 20452 20454 1 119.8800511 375.723200
20452 20454 20455 1 119.8800511 375.723200
20452 20454 20456 1 120.0200517 532.790560
20455 20454 20456 1 119.8800511 375.723200
20447 20456 20454 1 120.0200517 532.790560
20447 20456 20457 1 119.8800511 375.723200
20454 20456 20457 1 119.8800511 375.723200
20458 20459 20460 1 119.8800511 375.723200
20458 20459 20468 1 119.8800511 375.723200
20460 20459 20468 1 120.0200517 532.790560
20459 20460 20461 1 121.3800518 83.010560
20459 20460 20462 1 120.0200517 532.790560
20461 20460 20462 1 121.3800518 83.010560
314 20461 6889 1 109.50000 418.400000
314 20461 9690 1 109.50000 418.400000
314 20461 20460 1 103.70004 836.800000
6889 20461 9690 1 109.50000 418.400000
6889 20461 20460 1 103.70004 836.800000
9690 20461 20460 1 103.70004 836.800000
20460 20462 20463 1 119.8800511 375.723200
20460 20462 20464 1 120.0200517 532.790560
20463 20462 20464 1 119.8800511 375.723200
20462 20464 20465 1 119.8800511 375.723200
20462 20464 20466 1 120.0200517 532.790560
20465 20464 20466 1 119.8800511 375.723200
20464 20466 20467 1 119.8800511 375.723200
20464 20466 20468 1 120.0200517 532.790560
20467 20466 20468 1 119.8800511 375.723200
20459 20468 20466 1 120.0200517 532.790560
20459 20468 20469 1 119.8800511 375.723200
20466 20468 20469 1 119.8800511 375.723200
20470 20471 20472 1 119.8800511 375.723200
20470 20471 20480 1 119.8800511 375.723200
20472 20471 20480 1 120.0200517 532.790560
20471 20472 20473 1 121.3800518 83.010560
20471 20472 20474 1 120.0200517 532.790560
20473 20472 20474 1 121.3800518 83.010560
6364 20473 7769 1 109.50000 418.400000
6364 20473 7770 1 109.50000 418.400000
6364 20473 20472 1 103.70004 836.800000
7769 20473 7770 1 109.50000 418.400000
7769 20473 20472 1 103.70004 836.800000
7770 20473 20472 1 103.70004 836.800000
20472 20474 20475 1 119.8800511 375.723200
20472 20474 20476 1 120.0200517 532.790560
20475 20474 20476 1 119.8800511 375.723200
20474 20476 20477 1 119.8800511 375.723200
20474 20476 20478 1 120.0200517 532.790560
20477 20476 20478 1 119.8800511 375.723200
20476 20478 20479 1 119.8800511 375.723200
20476 20478 20480 1 120.0200517 532.790560
20479 20478 20480 1 119.8800511 375.723200
20471 20480 20478 1 120.0200517 532.790560
20471 20480 20481 1 119.8800511 375.723200
20478 20480 20481 1 119.8800511 375.723200
20482 20483 20484 1 119.8800511 375.723200
20482 20483 20492 1 119.8800511 375.723200
20484 20483 20492 1 120.0200517 532.790560
20483 20484 20485 1 121.3800518 83.010560
20483 20484 20486 1 120.0200517 532.790560
20485 20484 20486 1 121.3800518 83.010560
5496 20485 5497 1 109.50000 418.400000
5496 20485 5498 1 109.50000 418.400000
5496 20485 20484 1 103.70004 836.800000
5497 20485 5498 1 109.50000 418.400000
5497 20485 20484 1 103.70004 836.800000
5498 20485 20484 1 103.70004 836.800000
20484 20486 20487 1 119.8800511 375.723200
20484 20486 20488 1 120.0200517 532.790560
20487 20486 20488 1 119.8800511 375.723200
20486 20488 20489 1 119.8800511 375.723200
20486 20488 20490 1 120.0200517 532.790560
20489 20488 20490 1 119.8800511 375.723200
20488 20490 20491 1 119.8800511 375.723200
20488 20490 20492 1 120.0200517 532.790560
20491 20490 20492 1 119.8800511 375.723200
20483 20492 20490 1 120.0200517 532.790560
20483 20492 20493 1 119.8800511 375.723200
20490 20492 20493 1 119.8800511 375.723200
20494 20495 20496 1 119.8800511 375.723200
20494 20495 20504 1 119.8800511 375.723200
20496 20495 20504 1 120.0200517 532.790560
20495 20496 20497 1 121.3800518 83.010560
20495 20496 20498 1 120.0200517 532.790560
20497 20496 20498 1 121.3800518 83.010560
8928 20497 9424 1 109.50000 418.400000
8928 20497 9823 1 109.50000 418.400000
8928 20497 20496 1 103.70004 836.800000
9424 20497 9823 1 109.50000 418.400000
9424 20497 20496 1 103.70004 836.800000
9823 20497 20496 1 103.70004 836.800000
20496 20498 20499 1 119.8800511 375.723200
20496 20498 20500 1 120.0200517 532.790560
20499 20498 20500 1 119.8800511 375.723200
20498 20500 20501 1 119.8800511 375.723200
20498 20500 20502 1 120.0200517 532.790560
20501 20500 20502 1 119.8800511 375.723200
20500 20502 20503 1 119.8800511 375.723200
20500 20502 20504 1 120.0200517 532.790560
20503 20502 20504 1 119.8800511 375.723200
20495 20504 20502 1 120.0200517 532.790560
20495 20504 20505 1 119.8800511 375.723200
20502 20504 20505 1 119.8800511 375.723200
20506 20507 20508 1 119.8800511 375.723200
20506 20507 20516 1 119.8800511 375.723200
20508 20507 20516 1 120.0200517 532.790560
20507 20508 20509 1 121.3800518 83.010560
20507 20508 20510 1 120.0200517 532.790560
20509 20508 20510 1 121.3800518 83.010560
383 20509 1830 1 109.50000 418.400000
383 20509 7800 1 109.50000 418.400000
383 20509 20508 1 103.70004 836.800000
1830 20509 7800 1 109.50000 418.400000
1830 20509 20508 1 103.70004 836.800000
7800 20509 20508 1 103.70004 836.800000
20508 20510 20511 1 119.8800511 375.723200
20508 20510 20512 1 120.0200517 532.790560
20511 20510 20512 1 119.8800511 375.723200
20510 20512 20513 1 119.8800511 375.723200
20510 20512 20514 1 120.0200517 532.790560
20513 20512 20514 1 119.8800511 375.723200
20512 20514 20515 1 119.8800511 375.723200
20512 20514 20516 1 120.0200517 532.790560
20515 20514 20516 1 119.8800511 375.723200
20507 20516 20514 1 120.0200517 532.790560
20507 20516 20517 1 119.8800511 375.723200
20514 20516 20517 1 119.8800511 375.723200
20518 20519 20520 1 119.8800511 375.723200
20518 20519 20528 1 119.8800511 375.723200
20520 20519 20528 1 120.0200517 532.790560
20519 20520 20521 1 121.3800518 83.010560
20519 20520 20522 1 120.0200517 532.790560
20521 20520 20522 1 121.3800518 83.010560
1476 20521 4692 1 109.50000 418.400000
1476 20521 7472 1 109.50000 418.400000
1476 20521 20520 1 103.70004 836.800000
4692 20521 7472 1 109.50000 418.400000
4692 20521 20520 1 103.70004 836.800000
7472 20521 20520 1 103.70004 836.800000
20520 20522 20523 1 119.8800511 375.723200
20520 20522 20524 1 120.0200517 532.790560
20523 20522 20524 1 119.8800511 375.723200
20522 20524 20525 1 119.8800511 375.723200
20522 20524 20526 1 120.0200517 532.790560
20525 20524 20526 1 119.8800511 375.723200
20524 20526 20527 1 119.8800511 375.723200
20524 20526 20528 1 120.0200517 532.790560
20527 20526 20528 1 119.8800511 375.723200
20519 20528 20526 1 120.0200517 532.790560
20519 20528 20529 1 119.8800511 375.723200
20526 20528 20529 1 119.8800511 375.723200
20530 20531 20532 1 119.8800511 375.723200
20530 20531 20540 1 119.8800511 375.723200
20532 20531 20540 1 120.0200517 532.790560
20531 20532 20533 1 121.3800518 83.010560
20531 20532 20534 1 120.0200517 532.790560
20533 20532 20534 1 121.3800518 83.010560
3974 20533 4432 1 109.50000 418.400000
3974 20533 4519 1 109.50000 418.400000
3974 20533 20532 1 103.70004 836.800000
4432 20533 4519 1 109.50000 418.400000
4432 20533 20532 1 103.70004 836.800000
4519 20533 20532 1 103.70004 836.800000
20532 20534 20535 1 119.8800511 375.723200
20532 20534 20536 1 120.0200517 532.790560
20535 20534 20536 1 119.8800511 375.723200
20534 20536 20537 1 119.8800511 375.723200
20534 20536 20538 1 120.0200517 532.790560
20537 20536 20538 1 119.8800511 375.723200
20536 20538 20539 1 119.8800511 375.723200
20536 20538 20540 1 120.0200517 532.790560
20539 20538 20540 1 119.8800511 375.723200
20531 20540 20538 1 120.0200517 532.790560
20531 20540 20541 1 119.8800511 375.723200
20538 20540 20541 1 119.8800511 375.723200
20542 20543 20544 1 119.8800511 375.723200
20542 20543 20552 1 119.8800511 375.723200
20544 20543 20552 1 120.0200517 532.790560
20543 20544 20545 1 121.3800518 83.010560
20543 20544 20546 1 120.0200517 532.790560
20545 20544 20546 1 121.3800518 83.010560
4419 20545 4577 1 109.50000 418.400000
4419 20545 11185 1 109.50000 418.400000
4419 20545 20544 1 103.70004 836.800000
4577 20545 11185 1 109.50000 418.400000
4577 20545 20544 1 103.70004 836.800000
11185 20545 20544 1 103.70004 836.800000
20544 20546 20547 1 119.8800511 375.723200
20544 20546 20548 1 120.0200517 532.790560
20547 20546 20548 1 119.8800511 375.723200
20546 20548 20549 1 119.8800511 375.723200
20546 20548 20550 1 120.0200517 532.790560
20549 20548 20550 1 119.8800511 375.723200
20548 20550 20551 1 119.8800511 375.723200
20548 20550 20552 1 120.0200517 532.790560
20551 20550 20552 1 119.8800511 375.723200
20543 20552 20550 1 120.0200517 532.790560
20543 20552 20553 1 119.8800511 375.723200
20550 20552 20553 1 119.8800511 375.723200
20554 20555 20556 1 119.8800511 375.723200
20554 20555 20564 1 119.8800511 375.723200
20556 20555 20564 1 120.0200517 532.790560
20555 20556 20557 1 121.3800518 83.010560
20555 20556 20558 1 120.0200517 532.790560
20557 20556 20558 1 121.3800518 83.010560
3604 20557 5991 1 109.50000 418.400000
3604 20557 5992 1 109.50000 418.400000
3604 20557 20556 1 103.70004 836.800000
5991 20557 5992 1 109.50000 418.400000
5991 20557 20556 1 103.70004 836.800000
5992 20557 20556 1 103.70004 836.800000
20556 20558 20559 1 119.8800511 375.723200
20556 20558 20560 1 120.0200517 532.790560
20559 20558 20560 1 119.8800511 375.723200
20558 20560 20561 1 119.8800511 375.723200
20558 20560 20562 1 120.0200517 532.790560
20561 20560 20562 1 119.8800511 375.723200
20560 20562 20563 1 119.8800511 375.723200
20560 20562 20564 1 120.0200517 532.790560
20563 20562 20564 1 119.8800511 375.723200
20555 20564 20562 1 120.0200517 532.790560
20555 20564 20565 1 119.8800511 375.723200
20562 20564 20565 1 119.8800511 375.723200
20566 20567 20568 1 119.8800511 375.723200
20566 20567 20576 1 119.8800511 375.723200
20568 20567 20576 1 120.0200517 532.790560
20567 20568 20569 1 121.3800518 83.010560
20567 20568 20570 1 120.0200517 532.790560
20569 20568 20570 1 121.3800518 83.010560
598 20569 9194 1 109.50000 418.400000
598 20569 11235 1 109.50000 418.400000
598 20569 20568 1 103.70004 836.800000
9194 20569 11235 1 109.50000 418.400000
9194 20569 20568 1 103.70004 836.800000
11235 20569 20568 1 103.70004 836.800000
20568 20570 20571 1 119.8800511 375.723200
20568 20570 20572 1 120.0200517 532.790560
20571 20570 20572 1 119.8800511 375.723200
20570 20572 20573 1 119.8800511 375.723200
20570 20572 20574 1 120.0200517 532.790560
20573 20572 20574 1 119.8800511 375.723200
20572 20574 20575 1 119.8800511 375.723200
20572 20574 20576 1 120.0200517 532.790560
20575 20574 20576 1 119.8800511 375.723200
20567 20576 20574 1 120.0200517 532.790560
20567 20576 20577 1 119.8800511 375.723200
20574 20576 20577 1 119.8800511 375.723200
20578 20579 20580 1 119.8800511 375.723200
20578 20579 20588 1 119.8800511 375.723200
20580 20579 20588 1 120.0200517 532.790560
20579 20580 20581 1 121.3800518 83.010560
20579 20580 20582 1 120.0200517 532.790560
20581 20580 20582 1 121.3800518 83.010560
5440 20581 8573 1 109.50000 418.400000
5440 20581 8574 1 109.50000 418.400000
5440 20581 20580 1 103.70004 836.800000
8573 20581 8574 1 109.50000 418.400000
8573 20581 20580 1 103.70004 836.800000
8574 20581 20580 1 103.70004 836.800000
20580 20582 20583 1 119.8800511 375.723200
20580 20582 20584 1 120.0200517 532.790560
20583 20582 20584 1 119.8800511 375.723200
20582 20584 20585 1 119.8800511 375.723200
20582 20584 20586 1 120.0200517 532.790560
20585 20584 20586 1 119.8800511 375.723200
20584 20586 20587 1 119.8800511 375.723200
20584 20586 20588 1 120.0200517 532.790560
20587 20586 20588 1 119.8800511 375.723200
20579 20588 20586 1 120.0200517 532.790560
20579 20588 20589 1 119.8800511 375.723200
20586 20588 20589 1 119.8800511 375.723200
20590 20591 20592 1 119.8800511 375.723200
20590 20591 20600 1 119.8800511 375.723200
20592 20591 20600 1 120.0200517 532.790560
20591 20592 20593 1 121.3800518 83.010560
20591 20592 20594 1 120.0200517 532.790560
20593 20592 20594 1 121.3800518 83.010560
6931 20593 10047 1 109.50000 418.400000
6931 20593 11078 1 109.50000 418.400000
6931 20593 20592 1 103.70004 836.800000
10047 20593 11078 1 109.50000 418.400000
10047 20593 20592 1 103.70004 836.800000
11078 20593 20592 1 103.70004 836.800000
20592 20594 20595 1 119.8800511 375.723200
20592 20594 20596 1 120.0200517 532.790560
20595 20594 20596 1 119.8800511 375.723200
20594 20596 20597 1 119.8800511 375.723200
20594 20596 20598 1 120.0200517 532.790560
20597 20596 20598 1 119.8800511 375.723200
20596 20598 20599 1 119.8800511 375.723200
20596 20598 20600 1 120.0200517 532.790560
20599 20598 20600 1 119.8800511 375.723200
20591 20600 20598 1 120.0200517 532.790560
20591 20600 20601 1 119.8800511 375.723200
20598 20600 20601 1 119.8800511 375.723200
20602 20603 20604 1 119.8800511 375.723200
20602 20603 20612 1 119.8800511 375.723200
20604 20603 20612 1 120.0200517 532.790560
20603 20604 20605 1 121.3800518 83.010560
20603 20604 20606 1 120.0200517 532.790560
20605 20604 20606 1 121.3800518 83.010560
3625 20605 5256 1 109.50000 418.400000
3625 20605 5257 1 109.50000 418.400000
3625 20605 20604 1 103.70004 836.800000
5256 20605 5257 1 109.50000 418.400000
5256 20605 20604 1 103.70004 836.800000
5257 20605 20604 1 103.70004 836.800000
20604 20606 20607 1 119.8800511 375.723200
20604 20606 20608 1 120.0200517 532.790560
20607 20606 20608 1 119.8800511 375.723200
20606 20608 20609 1 119.8800511 375.723200
20606 20608 20610 1 120.0200517 532.790560
20609 20608 20610 1 119.8800511 375.723200
20608 20610 20611 1 119.8800511 375.723200
20608 20610 20612 1 120.0200517 532.790560
20611 20610 20612 1 119.8800511 375.723200
20603 20612 20610 1 120.0200517 532.790560
20603 20612 20613 1 119.8800511 375.723200
20610 20612 20613 1 119.8800511 375.723200
20614 20615 20616 1 119.8800511 375.723200
20614 20615 20624 1 119.8800511 375.723200
20616 20615 20624 1 120.0200517 532.790560
20615 20616 20617 1 121.3800518 83.010560
20615 20616 20618 1 120.0200517 532.790560
20617 20616 20618 1 121.3800518 83.010560
3071 20617 7376 1 109.50000 418.400000
3071 20617 9183 1 109.50000 418.400000
3071 20617 20616 1 103.70004 836.800000
7376 20617 9183 1 109.50000 418.400000
7376 20617 20616 1 103.70004 836.800000
9183 20617 20616 1 103.70004 836.800000
20616 20618 20619 1 119.8800511 375.723200
20616 20618 20620 1 120.0200517 532.790560
20619 20618 20620 1 119.8800511 375.723200
20618 20620 20621 1 119.8800511 375.723200
20618 20620 20622 1 120.0200517 532.790560
20621 20620 20622 1 119.8800511 375.723200
20620 20622 20623 1 119.8800511 375.723200
20620 20622 20624 1 120.0200517 532.790560
20623 20622 20624 1 119.8800511 375.723200
20615 20624 20622 1 120.0200517 532.790560
20615 20624 20625 1 119.8800511 375.723200
20622 20624 20625 1 119.8800511 375.723200
20626 20627 20628 1 119.8800511 375.723200
20626 20627 20636 1 119.8800511 375.723200
20628 20627 20636 1 120.0200517 532.790560
20627 20628 20629 1 121.3800518 83.010560
20627 20628 20630 1 120.0200517 532.790560
20629 20628 20630 1 121.3800518 83.010560
7546 20629 9792 1 109.50000 418.400000
7546 20629 10051 1 109.50000 418.400000
7546 20629 20628 1 103.70004 836.800000
9792 20629 10051 1 109.50000 418.400000
9792 20629 20628 1 103.70004 836.800000
10051 20629 20628 1 103.70004 836.800000
20628 20630 20631 1 119.8800511 375.723200
20628 20630 20632 1 120.0200517 532.790560
20631 20630 20632 1 119.8800511 375.723200
20630 20632 20633 1 119.8800511 375.723200
20630 20632 20634 1 120.0200517 532.790560
20633 20632 20634 1 119.8800511 375.723200
20632 20634 20635 1 119.8800511 375.723200
20632 20634 20636 1 120.0200517 532.790560
20635 20634 20636 1 119.8800511 375.723200
20627 20636 20634 1 120.0200517 532.790560
20627 20636 20637 1 119.8800511 375.723200
20634 20636 20637 1 119.8800511 375.723200
20638 20639 20640 1 119.8800511 375.723200
20638 20639 20648 1 119.8800511 375.723200
20640 20639 20648 1 120.0200517 532.790560
20639 20640 20641 1 121.3800518 83.010560
20639 20640 20642 1 120.0200517 532.790560
20641 20640 20642 1 121.3800518 83.010560
3219 20641 4603 1 109.50000 418.400000
3219 20641 4604 1 109.50000 418.400000
3219 20641 20640 1 103.70004 836.800000
4603 20641 4604 1 109.50000 418.400000
4603 20641 20640 1 103.70004 836.800000
4604 20641 20640 1 103.70004 836.800000
20640 20642 20643 1 119.8800511 375.723200
20640 20642 20644 1 120.0200517 532.790560
20643 20642 20644 1 119.8800511 375.723200
20642 20644 20645 1 119.8800511 375.723200
20642 20644 20646 1 120.0200517 532.790560
20645 20644 20646 1 119.8800511 375.723200
20644 20646 20647 1 119.8800511 375.723200
20644 20646 20648 1 120.0200517 532.790560
20647 20646 20648 1 119.8800511 375.723200
20639 20648 20646 1 120.0200517 532.790560
20639 20648 20649 1 119.8800511 375.723200
20646 20648 20649 1 119.8800511 375.723200
20650 20651 20652 1 119.8800511 375.723200
20650 20651 20660 1 119.8800511 375.723200
20652 20651 20660 1 120.0200517 532.790560
20651 20652 20653 1 121.3800518 83.010560
20651 20652 20654 1 120.0200517 532.790560
20653 20652 20654 1 121.3800518 83.010560
5427 20653 8058 1 109.50000 418.400000
5427 20653 9727 1 109.50000 418.400000
5427 20653 20652 1 103.70004 836.800000
8058 20653 9727 1 109.50000 418.400000
8058 20653 20652 1 103.70004 836.800000
9727 20653 20652 1 103.70004 836.800000
20652 20654 20655 1 119.8800511 375.723200
20652 20654 20656 1 120.0200517 532.790560
20655 20654 20656 1 119.8800511 375.723200
20654 20656 20657 1 119.8800511 375.723200
20654 20656 20658 1 120.0200517 532.790560
20657 20656 20658 1 119.8800511 375.723200
20656 20658 20659 1 119.8800511 375.723200
20656 20658 20660 1 120.0200517 532.790560
20659 20658 20660 1 119.8800511 375.723200
20651 20660 20658 1 120.0200517 532.790560
20651 20660 20661 1 119.8800511 375.723200
20658 20660 20661 1 119.8800511 375.723200
20662 20663 20664 1 119.8800511 375.723200
20662 20663 20672 1 119.8800511 375.723200
20664 20663 20672 1 120.0200517 532.790560
20663 20664 20665 1 121.3800518 83.010560
20663 20664 20666 1 120.0200517 532.790560
20665 20664 20666 1 121.3800518 83.010560
8011 20665 9479 1 109.50000 418.400000
8011 20665 9526 1 109.50000 418.400000
8011 20665 20664 1 103.70004 836.800000
9479 20665 9526 1 109.50000 418.400000
9479 20665 20664 1 103.70004 836.800000
9526 20665 20664 1 103.70004 836.800000
20664 20666 20667 1 119.8800511 375.723200
20664 20666 20668 1 120.0200517 532.790560
20667 20666 20668 1 119.8800511 375.723200
20666 20668 20669 1 119.8800511 375.723200
20666 20668 20670 1 120.0200517 532.790560
20669 20668 20670 1 119.8800511 375.723200
20668 20670 20671 1 119.8800511 375.723200
20668 20670 20672 1 120.0200517 532.790560
20671 20670 20672 1 119.8800511 375.723200
20663 20672 20670 1 120.0200517 532.790560
20663 20672 20673 1 119.8800511 375.723200
20670 20672 20673 1 119.8800511 375.723200
20674 20675 20676 1 119.8800511 375.723200
20674 20675 20684 1 119.8800511 375.723200
20676 20675 20684 1 120.0200517 532.790560
20675 20676 20677 1 121.3800518 83.010560
20675 20676 20678 1 120.0200517 532.790560
20677 20676 20678 1 121.3800518 83.010560
3567 20677 10441 1 109.50000 418.400000
3567 20677 10814 1 109.50000 418.400000
3567 20677 20676 1 103.70004 836.800000
10441 20677 10814 1 109.50000 418.400000
10441 20677 20676 1 103.70004 836.800000
10814 20677 20676 1 103.70004 836.800000
20676 20678 20679 1 119.8800511 375.723200
20676 20678 20680 1 120.0200517 532.790560
20679 20678 20680 1 119.8800511 375.723200
20678 20680 20681 1 119.8800511 375.723200
20678 20680 20682 1 120.0200517 532.790560
20681 20680 20682 1 119.8800511 375.723200
20680 20682 20683 1 119.8800511 375.723200
20680 20682 20684 1 120.0200517 532.790560
20683 20682 20684 1 119.8800511 375.723200
20675 20684 20682 1 120.0200517 532.790560
20675 20684 20685 1 119.8800511 375.723200
20682 20684 20685 1 119.8800511 375.723200
20686 20687 20688 1 119.8800511 375.723200
20686 20687 20696 1 119.8800511 375.723200
20688 20687 20696 1 120.0200517 532.790560
20687 20688 20689 1 121.3800518 83.010560
20687 20688 20690 1 120.0200517 532.790560
20689 20688 20690 1 121.3800518 83.010560
5463 20689 8331 1 109.50000 418.400000
5463 20689 8332 1 109.50000 418.400000
5463 20689 20688 1 103.70004 836.800000
8331 20689 8332 1 109.50000 418.400000
8331 20689 20688 1 103.70004 836.800000
8332 20689 20688 1 103.70004 836.800000
20688 20690 20691 1 119.8800511 375.723200
20688 20690 20692 1 120.0200517 532.790560
20691 20690 20692 1 119.8800511 375.723200
20690 20692 20693 1 119.8800511 375.723200
20690 20692 20694 1 120.0200517 532.790560
20693 20692 20694 1 119.8800511 375.723200
20692 20694 20695 1 119.8800511 375.723200
20692 20694 20696 1 120.0200517 532.790560
20695 20694 20696 1 119.8800511 375.723200
20687 20696 20694 1 120.0200517 532.790560
20687 20696 20697 1 119.8800511 375.723200
20694 20696 20697 1 119.8800511 375.723200
20698 20699 20700 1 119.8800511 375.723200
20698 20699 20708 1 119.8800511 375.723200
20700 20699 20708 1 120.0200517 532.790560
20699 20700 20701 1 121.3800518 83.010560
20699 20700 20702 1 120.0200517 532.790560
20701 20700 20702 1 121.3800518 83.010560
7580 20701 9549 1 109.50000 418.400000
7580 20701 11212 1 109.50000 418.400000
7580 20701 20700 1 103.70004 836.800000
9549 20701 11212 1 109.50000 418.400000
9549 20701 20700 1 103.70004 836.800000
11212 20701 20700 1 103.70004 836.800000
20700 20702 20703 1 119.8800511 375.723200
20700 20702 20704 1 120.0200517 532.790560
20703 20702 20704 1 119.8800511 375.723200
20702 20704 20705 1 119.8800511 375.723200
20702 20704 20706 1 120.0200517 532.790560
20705 20704 20706 1 119.8800511 375.723200
20704 20706 20707 1 119.8800511 375.723200
20704 20706 20708 1 120.0200517 532.790560
20707 20706 20708 1 119.8800511 375.723200
20699 20708 20706 1 120.0200517 532.790560
20699 20708 20709 1 119.8800511 375.723200
20706 20708 20709 1 119.8800511 375.723200
20710 20711 20712 1 119.8800511 375.723200
20710 20711 20720 1 119.8800511 375.723200
20712 20711 20720 1 120.0200517 532.790560
20711 20712 20713 1 121.3800518 83.010560
20711 20712 20714 1 120.0200517 532.790560
20713 20712 20714 1 121.3800518 83.010560
1083 20713 4636 1 109.50000 418.400000
1083 20713 5142 1 109.50000 418.400000
1083 20713 20712 1 103.70004 836.800000
4636 20713 5142 1 109.50000 418.400000
4636 20713 20712 1 103.70004 836.800000
5142 20713 20712 1 103.70004 836.800000
20712 20714 20715 1 119.8800511 375.723200
20712 20714 20716 1 120.0200517 532.790560
20715 20714 20716 1 119.8800511 375.723200
20714 20716 20717 1 119.8800511 375.723200
20714 20716 20718 1 120.0200517 532.790560
20717 20716 20718 1 119.8800511 375.723200
20716 20718 20719 1 119.8800511 375.723200
20716 20718 20720 1 120.0200517 532.790560
20719 20718 20720 1 119.8800511 375.723200
20711 20720 20718 1 120.0200517 532.790560
20711 20720 20721 1 119.8800511 375.723200
20718 20720 20721 1 119.8800511 375.723200
20722 20723 20724 1 119.8800511 375.723200
20722 20723 20732 1 119.8800511 375.723200
20724 20723 20732 1 120.0200517 532.790560
20723 20724 20725 1 121.3800518 83.010560
20723 20724 20726 1 120.0200517 532.790560
20725 20724 20726 1 121.3800518 83.010560
3013 20725 11137 1 109.50000 418.400000
3013 20725 11149 1 109.50000 418.400000
3013 20725 20724 1 103.70004 836.800000
11137 20725 11149 1 109.50000 418.400000
11137 20725 20724 1 103.70004 836.800000
11149 20725 20724 1 103.70004 836.800000
20724 20726 20727 1 119.8800511 375.723200
20724 20726 20728 1 120.0200517 532.790560
20727 20726 20728 1 119.8800511 375.723200
20726 20728 20729 1 119.8800511 375.723200
20726 20728 20730 1 120.0200517 532.790560
20729 20728 20730 1 119.8800511 375.723200
20728 20730 20731 1 119.8800511 375.723200
20728 20730 20732 1 120.0200517 532.790560
20731 20730 20732 1 119.8800511 375.723200
20723 20732 20730 1 120.0200517 532.790560
20723 20732 20733 1 119.8800511 375.723200
20730 20732 20733 1 119.8800511 375.723200
20734 20735 20736 1 119.8800511 375.723200
20734 20735 20744 1 119.8800511 375.723200
20736 20735 20744 1 120.0200517 532.790560
20735 20736 20737 1 121.3800518 83.010560
20735 20736 20738 1 120.0200517 532.790560
20737 20736 20738 1 121.3800518 83.010560
6219 20737 10329 1 109.50000 418.400000
6219 20737 11155 1 109.50000 418.400000
6219 20737 20736 1 103.70004 836.800000
10329 20737 11155 1 109.50000 418.400000
10329 20737 20736 1 103.70004 836.800000
11155 20737 20736 1 103.70004 836.800000
20736 20738 20739 1 119.8800511 375.723200
20736 20738 20740 1 120.0200517 532.790560
20739 20738 20740 1 119.8800511 375.723200
20738 20740 20741 1 119.8800511 375.723200
20738 20740 20742 1 120.0200517 532.790560
20741 20740 20742 1 119.8800511 375.723200
20740 20742 20743 1 119.8800511 375.723200
20740 20742 20744 1 120.0200517 532.790560
20743 20742 20744 1 119.8800511 375.723200
20735 20744 20742 1 120.0200517 532.790560
20735 20744 20745 1 119.8800511 375.723200
20742 20744 20745 1 119.8800511 375.723200
20746 20747 20748 1 119.8800511 375.723200
20746 20747 20756 1 119.8800511 375.723200
20748 20747 20756 1 120.0200517 532.790560
20747 20748 20749 1 121.3800518 83.010560
20747 20748 20750 1 120.0200517 532.790560
20749 20748 20750 1 121.3800518 83.010560
6235 20749 9622 1 109.50000 418.400000
6235 20749 11249 1 109.50000 418.400000
6235 20749 20748 1 103.70004 836.800000
9622 20749 11249 1 109.50000 418.400000
9622 20749 20748 1 103.70004 836.800000
11249 20749 20748 1 103.70004 836.800000
20748 20750 20751 1 119.8800511 375.723200
20748 20750 20752 1 120.0200517 532.790560
20751 20750 20752 1 119.8800511 375.723200
20750 20752 20753 1 119.8800511 375.723200
20750 20752 20754 1 120.0200517 532.790560
20753 20752 20754 1 119.8800511 375.723200
20752 20754 20755 1 119.8800511 375.723200
20752 20754 20756 1 120.0200517 532.790560
20755 20754 20756 1 119.8800511 375.723200
20747 20756 20754 1 120.0200517 532.790560
20747 20756 20757 1 119.8800511 375.723200
20754 20756 20757 1 119.8800511 375.723200
20758 20759 20760 1 119.8800511 375.723200
20758 20759 20768 1 119.8800511 375.723200
20760 20759 20768 1 120.0200517 532.790560
20759 20760 20761 1 121.3800518 83.010560
20759 20760 20762 1 120.0200517 532.790560
20761 20760 20762 1 121.3800518 83.010560
4023 20761 5727 1 109.50000 418.400000
4023 20761 8081 1 109.50000 418.400000
4023 20761 20760 1 103.70004 836.800000
5727 20761 8081 1 109.50000 418.400000
5727 20761 20760 1 103.70004 836.800000
8081 20761 20760 1 103.70004 836.800000
20760 20762 20763 1 119.8800511 375.723200
20760 20762 20764 1 120.0200517 532.790560
20763 20762 20764 1 119.8800511 375.723200
20762 20764 20765 1 119.8800511 375.723200
20762 20764 20766 1 120.0200517 532.790560
20765 20764 20766 1 119.8800511 375.723200
20764 20766 20767 1 119.8800511 375.723200
20764 20766 20768 1 120.0200517 532.790560
20767 20766 20768 1 119.8800511 375.723200
20759 20768 20766 1 120.0200517 532.790560
20759 20768 20769 1 119.8800511 375.723200
20766 20768 20769 1 119.8800511 375.723200
20770 20771 20772 1 119.8800511 375.723200
20770 20771 20780 1 119.8800511 375.723200
20772 20771 20780 1 120.0200517 532.790560
20771 20772 20773 1 121.3800518 83.010560
20771 20772 20774 1 120.0200517 532.790560
20773 20772 20774 1 121.3800518 83.010560
7008 20773 7978 1 109.50000 418.400000
7008 20773 10582 1 109.50000 418.400000
7008 20773 20772 1 103.70004 836.800000
7978 20773 10582 1 109.50000 418.400000
7978 20773 20772 1 103.70004 836.800000
10582 20773 20772 1 103.70004 836.800000
20772 20774 20775 1 119.8800511 375.723200
20772 20774 20776 1 120.0200517 532.790560
20775 20774 20776 1 119.8800511 375.723200
20774 20776 20777 1 119.8800511 375.723200
20774 20776 20778 1 120.0200517 532.790560
20777 20776 20778 1 119.8800511 375.723200
20776 20778 20779 1 119.8800511 375.723200
20776 20778 20780 1 120.0200517 532.790560
20779 20778 20780 1 119.8800511 375.723200
20771 20780 20778 1 120.0200517 532.790560
20771 20780 20781 1 119.8800511 375.723200
20778 20780 20781 1 119.8800511 375.723200
20782 20783 20784 1 119.8800511 375.723200
20782 20783 20792 1 119.8800511 375.723200
20784 20783 20792 1 120.0200517 532.790560
20783 20784 20785 1 121.3800518 83.010560
20783 20784 20786 1 120.0200517 532.790560
20785 20784 20786 1 121.3800518 83.010560
1476 20785 1477 1 109.50000 418.400000
1476 20785 11140 1 109.50000 418.400000
1476 20785 20784 1 103.70004 836.800000
1477 20785 11140 1 109.50000 418.400000
1477 20785 20784 1 103.70004 836.800000
11140 20785 20784 1 103.70004 836.800000
20784 20786 20787 1 119.8800511 375.723200
20784 20786 20788 1 120.0200517 532.790560
20787 20786 20788 1 119.8800511 375.723200
20786 20788 20789 1 119.8800511 375.723200
20786 20788 20790 1 120.0200517 532.790560
20789 20788 20790 1 119.8800511 375.723200
20788 20790 20791 1 119.8800511 375.723200
20788 20790 20792 1 120.0200517 532.790560
20791 20790 20792 1 119.8800511 375.723200
20783 20792 20790 1 120.0200517 532.790560
20783 20792 20793 1 119.8800511 375.723200
20790 20792 20793 1 119.8800511 375.723200
20794 20795 20796 1 119.8800511 375.723200
20794 20795 20804 1 119.8800511 375.723200
20796 20795 20804 1 120.0200517 532.790560
20795 20796 20797 1 121.3800518 83.010560
20795 20796 20798 1 120.0200517 532.790560
20797 20796 20798 1 121.3800518 83.010560
2107 20797 6556 1 109.50000 418.400000
2107 20797 6557 1 109.50000 418.400000
2107 20797 20796 1 103.70004 836.800000
6556 20797 6557 1 109.50000 418.400000
6556 20797 20796 1 103.70004 836.800000
6557 20797 20796 1 103.70004 836.800000
20796 20798 20799 1 119.8800511 375.723200
20796 20798 20800 1 120.0200517 532.790560
20799 20798 20800 1 119.8800511 375.723200
20798 20800 20801 1 119.8800511 375.723200
20798 20800 20802 1 120.0200517 532.790560
20801 20800 20802 1 119.8800511 375.723200
20800 20802 20803 1 119.8800511 375.723200
20800 20802 20804 1 120.0200517 532.790560
20803 20802 20804 1 119.8800511 375.723200
20795 20804 20802 1 120.0200517 532.790560
20795 20804 20805 1 119.8800511 375.723200
20802 20804 20805 1 119.8800511 375.723200
20806 20807 20808 1 119.8800511 375.723200
20806 20807 20816 1 119.8800511 375.723200
20808 20807 20816 1 120.0200517 532.790560
20807 20808 20809 1 121.3800518 83.010560
20807 20808 20810 1 120.0200517 532.790560
20809 20808 20810 1 121.3800518 83.010560
8210 20809 9001 1 109.50000 418.400000
8210 20809 10356 1 109.50000 418.400000
8210 20809 20808 1 103.70004 836.800000
9001 20809 10356 1 109.50000 418.400000
9001 20809 20808 1 103.70004 836.800000
10356 20809 20808 1 103.70004 836.800000
20808 20810 20811 1 119.8800511 375.723200
20808 20810 20812 1 120.0200517 532.790560
20811 20810 20812 1 119.8800511 375.723200
20810 20812 20813 1 119.8800511 375.723200
20810 20812 20814 1 120.0200517 532.790560
20813 20812 20814 1 119.8800511 375.723200
20812 20814 20815 1 119.8800511 375.723200
20812 20814 20816 1 120.0200517 532.790560
20815 20814 20816 1 119.8800511 375.723200
20807 20816 20814 1 120.0200517 532.790560
20807 20816 20817 1 119.8800511 375.723200
20814 20816 20817 1 119.8800511 375.723200
20818 20819 20820 1 119.8800511 375.723200
20818 20819 20828 1 119.8800511 375.723200
20820 20819 20828 1 120.0200517 532.790560
20819 20820 20821 1 121.3800518 83.010560
20819 20820 20822 1 120.0200517 532.790560
20821 20820 20822 1 121.3800518 83.010560
2505 20821 2506 1 109.50000 418.400000
2505 20821 5440 1 109.50000 418.400000
2505 20821 20820 1 103.70004 836.800000
2506 20821 5440 1 109.50000 418.400000
2506 20821 20820 1 103.70004 836.800000
5440 20821 20820 1 103.70004 836.800000
20820 20822 20823 1 119.8800511 375.723200
20820 20822 20824 1 120.0200517 532.790560
20823 20822 20824 1 119.8800511 375.723200
20822 20824 20825 1 119.8800511 375.723200
20822 20824 20826 1 120.0200517 532.790560
20825 20824 20826 1 119.8800511 375.723200
20824 20826 20827 1 119.8800511 375.723200
20824 20826 20828 1 120.0200517 532.790560
20827 20826 20828 1 119.8800511 375.723200
20819 20828 20826 1 120.0200517 532.790560
20819 20828 20829 1 119.8800511 375.723200
20826 20828 20829 1 119.8800511 375.723200
20830 20831 20832 1 119.8800511 375.723200
20830 20831 20840 1 119.8800511 375.723200
20832 20831 20840 1 120.0200517 532.790560
20831 20832 20833 1 121.3800518 83.010560
20831 20832 20834 1 120.0200517 532.790560
20833 20832 20834 1 121.3800518 83.010560
2729 20833 2730 1 109.50000 418.400000
2729 20833 2731 1 109.50000 418.400000
2729 20833 20832 1 103.70004 836.800000
2730 20833 2731 1 109.50000 418.400000
2730 20833 20832 1 103.70004 836.800000
2731 20833 20832 1 103.70004 836.800000
20832 20834 20835 1 119.8800511 375.723200
20832 20834 20836 1 120.0200517 532.790560
20835 20834 20836 1 119.8800511 375.723200
20834 20836 20837 1 119.8800511 375.723200
20834 20836 20838 1 120.0200517 532.790560
20837 20836 20838 1 119.8800511 375.723200
20836 20838 20839 1 119.8800511 375.723200
20836 20838 20840 1 120.0200517 532.790560
20839 20838 20840 1 119.8800511 375.723200
20831 20840 20838 1 120.0200517 532.790560
20831 20840 20841 1 119.8800511 375.723200
20838 20840 20841 1 119.8800511 375.723200
20842 20843 20844 1 119.8800511 375.723200
20842 20843 20852 1 119.8800511 375.723200
20844 20843 20852 1 120.0200517 532.790560
20843 20844 20845 1 121.3800518 83.010560
20843 20844 20846 1 120.0200517 532.790560
20845 20844 20846 1 121.3800518 83.010560
2025 20845 5351 1 109.50000 418.400000
2025 20845 6810 1 109.50000 418.400000
2025 20845 20844 1 103.70004 836.800000
5351 20845 6810 1 109.50000 418.400000
5351 20845 20844 1 103.70004 836.800000
6810 20845 20844 1 103.70004 836.800000
20844 20846 20847 1 119.8800511 375.723200
20844 20846 20848 1 120.0200517 532.790560
20847 20846 20848 1 119.8800511 375.723200
20846 20848 20849 1 119.8800511 375.723200
20846 20848 20850 1 120.0200517 532.790560
20849 20848 20850 1 119.8800511 375.723200
20848 20850 20851 1 119.8800511 375.723200
20848 20850 20852 1 120.0200517 532.790560
20851 20850 20852 1 119.8800511 375.723200
20843 20852 20850 1 120.0200517 532.790560
20843 20852 20853 1 119.8800511 375.723200
20850 20852 20853 1 119.8800511 375.723200
20854 20855 20856 1 119.8800511 375.723200
20854 20855 20864 1 119.8800511 375.723200
20856 20855 20864 1 120.0200517 532.790560
20855 20856 20857 1 121.3800518 83.010560
20855 20856 20858 1 120.0200517 532.790560
20857 20856 20858 1 121.3800518 83.010560
6341 20857 7990 1 109.50000 418.400000
6341 20857 11125 1 109.50000 418.400000
6341 20857 20856 1 103.70004 836.800000
7990 20857 11125 1 109.50000 418.400000
7990 20857 20856 1 103.70004 836.800000
11125 20857 20856 1 103.70004 836.800000
20856 20858 20859 1 119.8800511 375.723200
20856 20858 20860 1 120.0200517 532.790560
20859 20858 20860 1 119.8800511 375.723200
20858 20860 20861 1 119.8800511 375.723200
20858 20860 20862 1 120.0200517 532.790560
20861 20860 20862 1 119.8800511 375.723200
20860 20862 20863 1 119.8800511 375.723200
20860 20862 20864 1 120.0200517 532.790560
20863 20862 20864 1 119.8800511 375.723200
20855 20864 20862 1 120.0200517 532.790560
20855 20864 20865 1 119.8800511 375.723200
20862 20864 20865 1 119.8800511 375.723200
20866 20867 20868 1 119.8800511 375.723200
20866 20867 20876 1 119.8800511 375.723200
20868 20867 20876 1 120.0200517 532.790560
20867 20868 20869 1 121.3800518 83.010560
20867 20868 20870 1 120.0200517 532.790560
20869 20868 20870 1 121.3800518 83.010560
838 20869 6783 1 109.50000 418.400000
838 20869 6784 1 109.50000 418.400000
838 20869 20868 1 103.70004 836.800000
6783 20869 6784 1 109.50000 418.400000
6783 20869 20868 1 103.70004 836.800000
6784 20869 20868 1 103.70004 836.800000
20868 20870 20871 1 119.8800511 375.723200
20868 20870 20872 1 120.0200517 532.790560
20871 20870 20872 1 119.8800511 375.723200
20870 20872 20873 1 119.8800511 375.723200
20870 20872 20874 1 120.0200517 532.790560
20873 20872 20874 1 119.8800511 375.723200
20872 20874 20875 1 119.8800511 375.723200
20872 20874 20876 1 120.0200517 532.790560
20875 20874 20876 1 119.8800511 375.723200
20867 20876 20874 1 120.0200517 532.790560
20867 20876 20877 1 119.8800511 375.723200
20874 20876 20877 1 119.8800511 375.723200
20878 20879 20880 1 119.8800511 375.723200
20878 20879 20888 1 119.8800511 375.723200
20880 20879 20888 1 120.0200517 532.790560
20879 20880 20881 1 121.3800518 83.010560
20879 20880 20882 1 120.0200517 532.790560
20881 20880 20882 1 121.3800518 83.010560
4278 20881 4930 1 109.50000 418.400000
4278 20881 6233 1 109.50000 418.400000
4278 20881 20880 1 103.70004 836.800000
4930 20881 6233 1 109.50000 418.400000
4930 20881 20880 1 103.70004 836.800000
6233 20881 20880 1 103.70004 836.800000
20880 20882 20883 1 119.8800511 375.723200
20880 20882 20884 1 120.0200517 532.790560
20883 20882 20884 1 119.8800511 375.723200
20882 20884 20885 1 119.8800511 375.723200
20882 20884 20886 1 120.0200517 532.790560
20885 20884 20886 1 119.8800511 375.723200
20884 20886 20887 1 119.8800511 375.723200
20884 20886 20888 1 120.0200517 532.790560
20887 20886 20888 1 119.8800511 375.723200
20879 20888 20886 1 120.0200517 532.790560
20879 20888 20889 1 119.8800511 375.723200
20886 20888 20889 1 119.8800511 375.723200
20890 20891 20892 1 119.8800511 375.723200
20890 20891 20900 1 119.8800511 375.723200
20892 20891 20900 1 120.0200517 532.790560
20891 20892 20893 1 121.3800518 83.010560
20891 20892 20894 1 120.0200517 532.790560
20893 20892 20894 1 121.3800518 83.010560
2234 20893 5413 1 109.50000 418.400000
2234 20893 5414 1 109.50000 418.400000
2234 20893 20892 1 103.70004 836.800000
5413 20893 5414 1 109.50000 418.400000
5413 20893 20892 1 103.70004 836.800000
5414 20893 20892 1 103.70004 836.800000
20892 20894 20895 1 119.8800511 375.723200
20892 20894 20896 1 120.0200517 532.790560
20895 20894 20896 1 119.8800511 375.723200
20894 20896 20897 1 119.8800511 375.723200
20894 20896 20898 1 120.0200517 532.790560
20897 20896 20898 1 119.8800511 375.723200
20896 20898 20899 1 119.8800511 375.723200
20896 20898 20900 1 120.0200517 532.790560
20899 20898 20900 1 119.8800511 375.723200
20891 20900 20898 1 120.0200517 532.790560
20891 20900 20901 1 119.8800511 375.723200
20898 20900 20901 1 119.8800511 375.723200
20902 20903 20904 1 119.8800511 375.723200
20902 20903 20912 1 119.8800511 375.723200
20904 20903 20912 1 120.0200517 532.790560
20903 20904 20905 1 121.3800518 83.010560
20903 20904 20906 1 120.0200517 532.790560
20905 20904 20906 1 121.3800518 83.010560
5763 20905 8044 1 109.50000 418.400000
5763 20905 10736 1 109.50000 418.400000
5763 20905 20904 1 103.70004 836.800000
8044 20905 10736 1 109.50000 418.400000
8044 20905 20904 1 103.70004 836.800000
10736 20905 20904 1 103.70004 836.800000
20904 20906 20907 1 119.8800511 375.723200
20904 20906 20908 1 120.0200517 532.790560
20907 20906 20908 1 119.8800511 375.723200
20906 20908 20909 1 119.8800511 375.723200
20906 20908 20910 1 120.0200517 532.790560
20909 20908 20910 1 119.8800511 375.723200
20908 20910 20911 1 119.8800511 375.723200
20908 20910 20912 1 120.0200517 532.790560
20911 20910 20912 1 119.8800511 375.723200
20903 20912 20910 1 120.0200517 532.790560
20903 20912 20913 1 119.8800511 375.723200
20910 20912 20913 1 119.8800511 375.723200
20914 20915 20916 1 119.8800511 375.723200
20914 20915 20924 1 119.8800511 375.723200
20916 20915 20924 1 120.0200517 532.790560
20915 20916 20917 1 121.3800518 83.010560
20915 20916 20918 1 120.0200517 532.790560
20917 20916 20918 1 121.3800518 83.010560
5130 20917 5131 1 109.50000 418.400000
5130 20917 5132 1 109.50000 418.400000
5130 20917 20916 1 103.70004 836.800000
5131 20917 5132 1 109.50000 418.400000
5131 20917 20916 1 103.70004 836.800000
5132 20917 20916 1 103.70004 836.800000
20916 20918 20919 1 119.8800511 375.723200
20916 20918 20920 1 120.0200517 532.790560
20919 20918 20920 1 119.8800511 375.723200
20918 20920 20921 1 119.8800511 375.723200
20918 20920 20922 1 120.0200517 532.790560
20921 20920 20922 1 119.8800511 375.723200
20920 20922 20923 1 119.8800511 375.723200
20920 20922 20924 1 120.0200517 532.790560
20923 20922 20924 1 119.8800511 375.723200
20915 20924 20922 1 120.0200517 532.790560
20915 20924 20925 1 119.8800511 375.723200
20922 20924 20925 1 119.8800511 375.723200
20926 20927 20928 1 119.8800511 375.723200
20926 20927 20936 1 119.8800511 375.723200
20928 20927 20936 1 120.0200517 532.790560
20927 20928 20929 1 121.3800518 83.010560
20927 20928 20930 1 120.0200517 532.790560
20929 20928 20930 1 121.3800518 83.010560
1444 20929 9025 1 109.50000 418.400000
1444 20929 10995 1 109.50000 418.400000
1444 20929 20928 1 103.70004 836.800000
9025 20929 10995 1 109.50000 418.400000
9025 20929 20928 1 103.70004 836.800000
10995 20929 20928 1 103.70004 836.800000
20928 20930 20931 1 119.8800511 375.723200
20928 20930 20932 1 120.0200517 532.790560
20931 20930 20932 1 119.8800511 375.723200
20930 20932 20933 1 119.8800511 375.723200
20930 20932 20934 1 120.0200517 532.790560
20933 20932 20934 1 119.8800511 375.723200
20932 20934 20935 1 119.8800511 375.723200
20932 20934 20936 1 120.0200517 532.790560
20935 20934 20936 1 119.8800511 375.723200
20927 20936 20934 1 120.0200517 532.790560
20927 20936 20937 1 119.8800511 375.723200
20934 20936 20937 1 119.8800511 375.723200
20938 20939 20940 1 119.8800511 375.723200
20938 20939 20948 1 119.8800511 375.723200
20940 20939 20948 1 120.0200517 532.790560
20939 20940 20941 1 121.3800518 83.010560
20939 20940 20942 1 120.0200517 532.790560
20941 20940 20942 1 121.3800518 83.010560
1984 20941 3195 1 109.50000 418.400000
1984 20941 10747 1 109.50000 418.400000
1984 20941 20940 1 103.70004 836.800000
3195 20941 10747 1 109.50000 418.400000
3195 20941 20940 1 103.70004 836.800000
10747 20941 20940 1 103.70004 836.800000
20940 20942 20943 1 119.8800511 375.723200
20940 20942 20944 1 120.0200517 532.790560
20943 20942 20944 1 119.8800511 375.723200
20942 20944 20945 1 119.8800511 375.723200
20942 20944 20946 1 120.0200517 532.790560
20945 20944 20946 1 119.8800511 375.723200
20944 20946 20947 1 119.8800511 375.723200
20944 20946 20948 1 120.0200517 532.790560
20947 20946 20948 1 119.8800511 375.723200
20939 20948 20946 1 120.0200517 532.790560
20939 20948 20949 1 119.8800511 375.723200
20946 20948 20949 1 119.8800511 375.723200
20950 20951 20952 1 119.8800511 375.723200
20950 20951 20960 1 119.8800511 375.723200
20952 20951 20960 1 120.0200517 532.790560
20951 20952 20953 1 121.3800518 83.010560
20951 20952 20954 1 120.0200517 532.790560
20953 20952 20954 1 121.3800518 83.010560
4955 20953 8067 1 109.50000 418.400000
4955 20953 10686 1 109.50000 418.400000
4955 20953 20952 1 103.70004 836.800000
8067 20953 10686 1 109.50000 418.400000
8067 20953 20952 1 103.70004 836.800000
10686 20953 20952 1 103.70004 836.800000
20952 20954 20955 1 119.8800511 375.723200
20952 20954 20956 1 120.0200517 532.790560
20955 20954 20956 1 119.8800511 375.723200
20954 20956 20957 1 119.8800511 375.723200
20954 20956 20958 1 120.0200517 532.790560
20957 20956 20958 1 119.8800511 375.723200
20956 20958 20959 1 119.8800511 375.723200
20956 20958 20960 1 120.0200517 532.790560
20959 20958 20960 1 119.8800511 375.723200
20951 20960 20958 1 120.0200517 532.790560
20951 20960 20961 1 119.8800511 375.723200
20958 20960 20961 1 119.8800511 375.723200
20962 20963 20964 1 119.8800511 375.723200
20962 20963 20972 1 119.8800511 375.723200
20964 20963 20972 1 120.0200517 532.790560
20963 20964 20965 1 121.3800518 83.010560
20963 20964 20966 1 120.0200517 532.790560
20965 20964 20966 1 121.3800518 83.010560
2699 20965 10076 1 109.50000 418.400000
2699 20965 10139 1 109.50000 418.400000
2699 20965 20964 1 103.70004 836.800000
10076 20965 10139 1 109.50000 418.400000
10076 20965 20964 1 103.70004 836.800000
10139 20965 20964 1 103.70004 836.800000
20964 20966 20967 1 119.8800511 375.723200
20964 20966 20968 1 120.0200517 532.790560
20967 20966 20968 1 119.8800511 375.723200
20966 20968 20969 1 119.8800511 375.723200
20966 20968 20970 1 120.0200517 532.790560
20969 20968 20970 1 119.8800511 375.723200
20968 20970 20971 1 119.8800511 375.723200
20968 20970 20972 1 120.0200517 532.790560
20971 20970 20972 1 119.8800511 375.723200
20963 20972 20970 1 120.0200517 532.790560
20963 20972 20973 1 119.8800511 375.723200
20970 20972 20973 1 119.8800511 375.723200
20974 20975 20976 1 119.8800511 375.723200
20974 20975 20984 1 119.8800511 375.723200
20976 20975 20984 1 120.0200517 532.790560
20975 20976 20977 1 121.3800518 83.010560
20975 20976 20978 1 120.0200517 532.790560
20977 20976 20978 1 121.3800518 83.010560
6 20977 7818 1 109.50000 418.400000
6 20977 7819 1 109.50000 418.400000
6 20977 20976 1 103.70004 836.800000
7818 20977 7819 1 109.50000 418.400000
7818 20977 20976 1 103.70004 836.800000
7819 20977 20976 1 103.70004 836.800000
20976 20978 20979 1 119.8800511 375.723200
20976 20978 20980 1 120.0200517 532.790560
20979 20978 20980 1 119.8800511 375.723200
20978 20980 20981 1 119.8800511 375.723200
20978 20980 20982 1 120.0200517 532.790560
20981 20980 20982 1 119.8800511 375.723200
20980 20982 20983 1 119.8800511 375.723200
20980 20982 20984 1 120.0200517 532.790560
20983 20982 20984 1 119.8800511 375.723200
20975 20984 20982 1 120.0200517 532.790560
20975 20984 20985 1 119.8800511 375.723200
20982 20984 20985 1 119.8800511 375.723200
20986 20987 20988 1 119.8800511 375.723200
20986 20987 20996 1 119.8800511 375.723200
20988 20987 20996 1 120.0200517 532.790560
20987 20988 20989 1 121.3800518 83.010560
20987 20988 20990 1 120.0200517 532.790560
20989 20988 20990 1 121.3800518 83.010560
6533 20989 9458 1 109.50000 418.400000
6533 20989 9683 1 109.50000 418.400000
6533 20989 20988 1 103.70004 836.800000
9458 20989 9683 1 109.50000 418.400000
9458 20989 20988 1 103.70004 836.800000
9683 20989 20988 1 103.70004 836.800000
20988 20990 20991 1 119.8800511 375.723200
20988 20990 20992 1 120.0200517 532.790560
20991 20990 20992 1 119.8800511 375.723200
20990 20992 20993 1 119.8800511 375.723200
20990 20992 20994 1 120.0200517 532.790560
20993 20992 20994 1 119.8800511 375.723200
20992 20994 20995 1 119.8800511 375.723200
20992 20994 20996 1 120.0200517 532.790560
20995 20994 20996 1 119.8800511 375.723200
20987 20996 20994 1 120.0200517 532.790560
20987 20996 20997 1 119.8800511 375.723200
20994 20996 20997 1 119.8800511 375.723200
20998 20999 21000 1 119.8800511 375.723200
20998 20999 21008 1 119.8800511 375.723200
21000 20999 21008 1 120.0200517 532.790560
20999 21000 21001 1 121.3800518 83.010560
20999 21000 21002 1 120.0200517 532.790560
21001 21000 21002 1 121.3800518 83.010560
7209 21001 7627 1 109.50000 418.400000
7209 21001 7628 1 109.50000 418.400000
7209 21001 21000 1 103.70004 836.800000
7627 21001 7628 1 109.50000 418.400000
7627 21001 21000 1 103.70004 836.800000
7628 21001 21000 1 103.70004 836.800000
21000 21002 21003 1 119.8800511 375.723200
21000 21002 21004 1 120.0200517 532.790560
21003 21002 21004 1 119.8800511 375.723200
21002 21004 21005 1 119.8800511 375.723200
21002 21004 21006 1 120.0200517 532.790560
21005 21004 21006 1 119.8800511 375.723200
21004 21006 21007 1 119.8800511 375.723200
21004 21006 21008 1 120.0200517 532.790560
21007 21006 21008 1 119.8800511 375.723200
20999 21008 21006 1 120.0200517 532.790560
20999 21008 21009 1 119.8800511 375.723200
21006 21008 21009 1 119.8800511 375.723200
21010 21011 21012 1 119.8800511 375.723200
21010 21011 21020 1 119.8800511 375.723200
21012 21011 21020 1 120.0200517 532.790560
21011 21012 21013 1 121.3800518 83.010560
21011 21012 21014 1 120.0200517 532.790560
21013 21012 21014 1 121.3800518 83.010560
7399 21013 7490 1 109.50000 418.400000
7399 21013 9606 1 109.50000 418.400000
7399 21013 21012 1 103.70004 836.800000
7490 21013 9606 1 109.50000 418.400000
7490 21013 21012 1 103.70004 836.800000
9606 21013 21012 1 103.70004 836.800000
21012 21014 21015 1 119.8800511 375.723200
21012 21014 21016 1 120.0200517 532.790560
21015 21014 21016 1 119.8800511 375.723200
21014 21016 21017 1 119.8800511 375.723200
21014 21016 21018 1 120.0200517 532.790560
21017 21016 21018 1 119.8800511 375.723200
21016 21018 21019 1 119.8800511 375.723200
21016 21018 21020 1 120.0200517 532.790560
21019 21018 21020 1 119.8800511 375.723200
21011 21020 21018 1 120.0200517 532.790560
21011 21020 21021 1 119.8800511 375.723200
21018 21020 21021 1 119.8800511 375.723200
21022 21023 21024 1 119.8800511 375.723200
21022 21023 21032 1 119.8800511 375.723200
21024 21023 21032 1 120.0200517 532.790560
21023 21024 21025 1 121.3800518 83.010560
21023 21024 21026 1 120.0200517 532.790560
21025 21024 21026 1 121.3800518 83.010560
6572 21025 6573 1 109.50000 418.400000
6572 21025 10080 1 109.50000 418.400000
6572 21025 21024 1 103.70004 836.800000
6573 21025 10080 1 109.50000 418.400000
6573 21025 21024 1 103.70004 836.800000
10080 21025 21024 1 103.70004 836.800000
21024 21026 21027 1 119.8800511 375.723200
21024 21026 21028 1 120.0200517 532.790560
21027 21026 21028 1 119.8800511 375.723200
21026 21028 21029 1 119.8800511 375.723200
21026 21028 21030 1 120.0200517 532.790560
21029 21028 21030 1 119.8800511 375.723200
21028 21030 21031 1 119.8800511 375.723200
21028 21030 21032 1 120.0200517 532.790560
21031 21030 21032 1 119.8800511 375.723200
21023 21032 21030 1 120.0200517 532.790560
21023 21032 21033 1 119.8800511 375.723200
21030 21032 21033 1 119.8800511 375.723200
21034 21035 21036 1 119.8800511 375.723200
21034 21035 21044 1 119.8800511 375.723200
21036 21035 21044 1 120.0200517 532.790560
21035 21036 21037 1 121.3800518 83.010560
21035 21036 21038 1 120.0200517 532.790560
21037 21036 21038 1 121.3800518 83.010560
8799 21037 10705 1 109.50000 418.400000
8799 21037 10923 1 109.50000 418.400000
8799 21037 21036 1 103.70004 836.800000
10705 21037 10923 1 109.50000 418.400000
10705 21037 21036 1 103.70004 836.800000
10923 21037 21036 1 103.70004 836.800000
21036 21038 21039 1 119.8800511 375.723200
21036 21038 21040 1 120.0200517 532.790560
21039 21038 21040 1 119.8800511 375.723200
21038 21040 21041 1 119.8800511 375.723200
21038 21040 21042 1 120.0200517 532.790560
21041 21040 21042 1 119.8800511 375.723200
21040 21042 21043 1 119.8800511 375.723200
21040 21042 21044 1 120.0200517 532.790560
21043 21042 21044 1 119.8800511 375.723200
21035 21044 21042 1 120.0200517 532.790560
21035 21044 21045 1 119.8800511 375.723200
21042 21044 21045 1 119.8800511 375.723200
21046 21047 21048 1 119.8800511 375.723200
21046 21047 21056 1 119.8800511 375.723200
21048 21047 21056 1 120.0200517 532.790560
21047 21048 21049 1 121.3800518 83.010560
21047 21048 21050 1 120.0200517 532.790560
21049 21048 21050 1 121.3800518 83.010560
1758 21049 1759 1 109.50000 418.400000
1758 21049 1760 1 109.50000 418.400000
1758 21049 21048 1 103.70004 836.800000
1759 21049 1760 1 109.50000 418.400000
1759 21049 21048 1 103.70004 836.800000
1760 21049 21048 1 103.70004 836.800000
21048 21050 21051 1 119.8800511 375.723200
21048 21050 21052 1 120.0200517 532.790560
21051 21050 21052 1 119.8800511 375.723200
21050 21052 21053 1 119.8800511 375.723200
21050 21052 21054 1 120.0200517 532.790560
21053 21052 21054 1 119.8800511 375.723200
21052 21054 21055 1 119.8800511 375.723200
21052 21054 21056 1 120.0200517 532.790560
21055 21054 21056 1 119.8800511 375.723200
21047 21056 21054 1 120.0200517 532.790560
21047 21056 21057 1 119.8800511 375.723200
21054 21056 21057 1 119.8800511 375.723200
21058 21059 21060 1 119.8800511 375.723200
21058 21059 21068 1 119.8800511 375.723200
21060 21059 21068 1 120.0200517 532.790560
21059 21060 21061 1 121.3800518 83.010560
21059 21060 21062 1 120.0200517 532.790560
21061 21060 21062 1 121.3800518 83.010560
2684 21061 4172 1 109.50000 418.400000
2684 21061 11210 1 109.50000 418.400000
2684 21061 21060 1 103.70004 836.800000
4172 21061 11210 1 109.50000 418.400000
4172 21061 21060 1 103.70004 836.800000
11210 21061 21060 1 103.70004 836.800000
21060 21062 21063 1 119.8800511 375.723200
21060 21062 21064 1 120.0200517 532.790560
21063 21062 21064 1 119.8800511 375.723200
21062 21064 21065 1 119.8800511 375.723200
21062 21064 21066 1 120.0200517 532.790560
21065 21064 21066 1 119.8800511 375.723200
21064 21066 21067 1 119.8800511 375.723200
21064 21066 21068 1 120.0200517 532.790560
21067 21066 21068 1 119.8800511 375.723200
21059 21068 21066 1 120.0200517 532.790560
21059 21068 21069 1 119.8800511 375.723200
21066 21068 21069 1 119.8800511 375.723200
21070 21071 21072 1 119.8800511 375.723200
21070 21071 21080 1 119.8800511 375.723200
21072 21071 21080 1 120.0200517 532.790560
21071 21072 21073 1 121.3800518 83.010560
21071 21072 21074 1 120.0200517 532.790560
21073 21072 21074 1 121.3800518 83.010560
6383 21073 6658 1 109.50000 418.400000
6383 21073 11242 1 109.50000 418.400000
6383 21073 21072 1 103.70004 836.800000
6658 21073 11242 1 109.50000 418.400000
6658 21073 21072 1 103.70004 836.800000
11242 21073 21072 1 103.70004 836.800000
21072 21074 21075 1 119.8800511 375.723200
21072 21074 21076 1 120.0200517 532.790560
21075 21074 21076 1 119.8800511 375.723200
21074 21076 21077 1 119.8800511 375.723200
21074 21076 21078 1 120.0200517 532.790560
21077 21076 21078 1 119.8800511 375.723200
21076 21078 21079 1 119.8800511 375.723200
21076 21078 21080 1 120.0200517 532.790560
21079 21078 21080 1 119.8800511 375.723200
21071 21080 21078 1 120.0200517 532.790560
21071 21080 21081 1 119.8800511 375.723200
21078 21080 21081 1 119.8800511 375.723200
21082 21083 21084 1 119.8800511 375.723200
21082 21083 21092 1 119.8800511 375.723200
21084 21083 21092 1 120.0200517 532.790560
21083 21084 21085 1 121.3800518 83.010560
21083 21084 21086 1 120.0200517 532.790560
21085 21084 21086 1 121.3800518 83.010560
274 21085 4813 1 109.50000 418.400000
274 21085 4814 1 109.50000 418.400000
274 21085 21084 1 103.70004 836.800000
4813 21085 4814 1 109.50000 418.400000
4813 21085 21084 1 103.70004 836.800000
4814 21085 21084 1 103.70004 836.800000
21084 21086 21087 1 119.8800511 375.723200
21084 21086 21088 1 120.0200517 532.790560
21087 21086 21088 1 119.8800511 375.723200
21086 21088 21089 1 119.8800511 375.723200
21086 21088 21090 1 120.0200517 532.790560
21089 21088 21090 1 119.8800511 375.723200
21088 21090 21091 1 119.8800511 375.723200
21088 21090 21092 1 120.0200517 532.790560
21091 21090 21092 1 119.8800511 375.723200
21083 21092 21090 1 120.0200517 532.790560
21083 21092 21093 1 119.8800511 375.723200
21090 21092 21093 1 119.8800511 375.723200
21094 21095 21096 1 119.8800511 375.723200
21094 21095 21104 1 119.8800511 375.723200
21096 21095 21104 1 120.0200517 532.790560
21095 21096 21097 1 121.3800518 83.010560
21095 21096 21098 1 120.0200517 532.790560
21097 21096 21098 1 121.3800518 83.010560
9269 21097 9492 1 109.50000 418.400000
9269 21097 10199 1 109.50000 418.400000
9269 21097 21096 1 103.70004 836.800000
9492 21097 10199 1 109.50000 418.400000
9492 21097 21096 1 103.70004 836.800000
10199 21097 21096 1 103.70004 836.800000
21096 21098 21099 1 119.8800511 375.723200
21096 21098 21100 1 120.0200517 532.790560
21099 21098 21100 1 119.8800511 375.723200
21098 21100 21101 1 119.8800511 375.723200
21098 21100 21102 1 120.0200517 532.790560
21101 21100 21102 1 119.8800511 375.723200
21100 21102 21103 1 119.8800511 375.723200
21100 21102 21104 1 120.0200517 532.790560
21103 21102 21104 1 119.8800511 375.723200
21095 21104 21102 1 120.0200517 532.790560
21095 21104 21105 1 119.8800511 375.723200
21102 21104 21105 1 119.8800511 375.723200
21106 21107 21108 1 119.8800511 375.723200
21106 21107 21116 1 119.8800511 375.723200
21108 21107 21116 1 120.0200517 532.790560
21107 21108 21109 1 121.3800518 83.010560
21107 21108 21110 1 120.0200517 532.790560
21109 21108 21110 1 121.3800518 83.010560
3470 21109 10046 1 109.50000 418.400000
3470 21109 10995 1 109.50000 418.400000
3470 21109 21108 1 103.70004 836.800000
10046 21109 10995 1 109.50000 418.400000
10046 21109 21108 1 103.70004 836.800000
10995 21109 21108 1 103.70004 836.800000
21108 21110 21111 1 119.8800511 375.723200
21108 21110 21112 1 120.0200517 532.790560
21111 21110 21112 1 119.8800511 375.723200
21110 21112 21113 1 119.8800511 375.723200
21110 21112 21114 1 120.0200517 532.790560
21113 21112 21114 1 119.8800511 375.723200
21112 21114 21115 1 119.8800511 375.723200
21112 21114 21116 1 120.0200517 532.790560
21115 21114 21116 1 119.8800511 375.723200
21107 21116 21114 1 120.0200517 532.790560
21107 21116 21117 1 119.8800511 375.723200
21114 21116 21117 1 119.8800511 375.723200
21118 21119 21120 1 119.8800511 375.723200
21118 21119 21128 1 119.8800511 375.723200
21120 21119 21128 1 120.0200517 532.790560
21119 21120 21121 1 121.3800518 83.010560
21119 21120 21122 1 120.0200517 532.790560
21121 21120 21122 1 121.3800518 83.010560
1112 21121 5188 1 109.50000 418.400000
1112 21121 9395 1 109.50000 418.400000
1112 21121 21120 1 103.70004 836.800000
5188 21121 9395 1 109.50000 418.400000
5188 21121 21120 1 103.70004 836.800000
9395 21121 21120 1 103.70004 836.800000
21120 21122 21123 1 119.8800511 375.723200
21120 21122 21124 1 120.0200517 532.790560
21123 21122 21124 1 119.8800511 375.723200
21122 21124 21125 1 119.8800511 375.723200
21122 21124 21126 1 120.0200517 532.790560
21125 21124 21126 1 119.8800511 375.723200
21124 21126 21127 1 119.8800511 375.723200
21124 21126 21128 1 120.0200517 532.790560
21127 21126 21128 1 119.8800511 375.723200
21119 21128 21126 1 120.0200517 532.790560
21119 21128 21129 1 119.8800511 375.723200
21126 21128 21129 1 119.8800511 375.723200
21130 21131 21132 1 119.8800511 375.723200
21130 21131 21140 1 119.8800511 375.723200
21132 21131 21140 1 120.0200517 532.790560
21131 21132 21133 1 121.3800518 83.010560
21131 21132 21134 1 120.0200517 532.790560
21133 21132 21134 1 121.3800518 83.010560
3385 21133 3386 1 109.50000 418.400000
3385 21133 3387 1 109.50000 418.400000
3385 21133 21132 1 103.70004 836.800000
3386 21133 3387 1 109.50000 418.400000
3386 21133 21132 1 103.70004 836.800000
3387 21133 21132 1 103.70004 836.800000
21132 21134 21135 1 119.8800511 375.723200
21132 21134 21136 1 120.0200517 532.790560
21135 21134 21136 1 119.8800511 375.723200
21134 21136 21137 1 119.8800511 375.723200
21134 21136 21138 1 120.0200517 532.790560
21137 21136 21138 1 119.8800511 375.723200
21136 21138 21139 1 119.8800511 375.723200
21136 21138 21140 1 120.0200517 532.790560
21139 21138 21140 1 119.8800511 375.723200
21131 21140 21138 1 120.0200517 532.790560
21131 21140 21141 1 119.8800511 375.723200
21138 21140 21141 1 119.8800511 375.723200
21142 21143 21144 1 119.8800511 375.723200
21142 21143 21152 1 119.8800511 375.723200
21144 21143 21152 1 120.0200517 532.790560
21143 21144 21145 1 121.3800518 83.010560
21143 21144 21146 1 120.0200517 532.790560
21145 21144 21146 1 121.3800518 83.010560
2587 21145 5183 1 109.50000 418.400000
2587 21145 8262 1 109.50000 418.400000
2587 21145 21144 1 103.70004 836.800000
5183 21145 8262 1 109.50000 418.400000
5183 21145 21144 1 103.70004 836.800000
8262 21145 21144 1 103.70004 836.800000
21144 21146 21147 1 119.8800511 375.723200
21144 21146 21148 1 120.0200517 532.790560
21147 21146 21148 1 119.8800511 375.723200
21146 21148 21149 1 119.8800511 375.723200
21146 21148 21150 1 120.0200517 532.790560
21149 21148 21150 1 119.8800511 375.723200
21148 21150 21151 1 119.8800511 375.723200
21148 21150 21152 1 120.0200517 532.790560
21151 21150 21152 1 119.8800511 375.723200
21143 21152 21150 1 120.0200517 532.790560
21143 21152 21153 1 119.8800511 375.723200
21150 21152 21153 1 119.8800511 375.723200
21154 21155 21156 1 119.8800511 375.723200
21154 21155 21164 1 119.8800511 375.723200
21156 21155 21164 1 120.0200517 532.790560
21155 21156 21157 1 121.3800518 83.010560
21155 21156 21158 1 120.0200517 532.790560
21157 21156 21158 1 121.3800518 83.010560
4216 21157 8058 1 109.50000 418.400000
4216 21157 8059 1 109.50000 418.400000
4216 21157 21156 1 103.70004 836.800000
8058 21157 8059 1 109.50000 418.400000
8058 21157 21156 1 103.70004 836.800000
8059 21157 21156 1 103.70004 836.800000
21156 21158 21159 1 119.8800511 375.723200
21156 21158 21160 1 120.0200517 532.790560
21159 21158 21160 1 119.8800511 375.723200
21158 21160 21161 1 119.8800511 375.723200
21158 21160 21162 1 120.0200517 532.790560
21161 21160 21162 1 119.8800511 375.723200
21160 21162 21163 1 119.8800511 375.723200
21160 21162 21164 1 120.0200517 532.790560
21163 21162 21164 1 119.8800511 375.723200
21155 21164 21162 1 120.0200517 532.790560
21155 21164 21165 1 119.8800511 375.723200
21162 21164 21165 1 119.8800511 375.723200
21166 21167 21168 1 119.8800511 375.723200
21166 21167 21176 1 119.8800511 375.723200
21168 21167 21176 1 120.0200517 532.790560
21167 21168 21169 1 121.3800518 83.010560
21167 21168 21170 1 120.0200517 532.790560
21169 21168 21170 1 121.3800518 83.010560
845 21169 3628 1 109.50000 418.400000
845 21169 5348 1 109.50000 418.400000
845 21169 21168 1 103.70004 836.800000
3628 21169 5348 1 109.50000 418.400000
3628 21169 21168 1 103.70004 836.800000
5348 21169 21168 1 103.70004 836.800000
21168 21170 21171 1 119.8800511 375.723200
21168 21170 21172 1 120.0200517 532.790560
21171 21170 21172 1 119.8800511 375.723200
21170 21172 21173 1 119.8800511 375.723200
21170 21172 21174 1 120.0200517 532.790560
21173 21172 21174 1 119.8800511 375.723200
21172 21174 21175 1 119.8800511 375.723200
21172 21174 21176 1 120.0200517 532.790560
21175 21174 21176 1 119.8800511 375.723200
21167 21176 21174 1 120.0200517 532.790560
21167 21176 21177 1 119.8800511 375.723200
21174 21176 21177 1 119.8800511 375.723200
21178 21179 21180 1 119.8800511 375.723200
21178 21179 21188 1 119.8800511 375.723200
21180 21179 21188 1 120.0200517 532.790560
21179 21180 21181 1 121.3800518 83.010560
21179 21180 21182 1 120.0200517 532.790560
21181 21180 21182 1 121.3800518 83.010560
473 21181 474 1 109.50000 418.400000
473 21181 11158 1 109.50000 418.400000
473 21181 21180 1 103.70004 836.800000
474 21181 11158 1 109.50000 418.400000
474 21181 21180 1 103.70004 836.800000
11158 21181 21180 1 103.70004 836.800000
21180 21182 21183 1 119.8800511 375.723200
21180 21182 21184 1 120.0200517 532.790560
21183 21182 21184 1 119.8800511 375.723200
21182 21184 21185 1 119.8800511 375.723200
21182 21184 21186 1 120.0200517 532.790560
21185 21184 21186 1 119.8800511 375.723200
21184 21186 21187 1 119.8800511 375.723200
21184 21186 21188 1 120.0200517 532.790560
21187 21186 21188 1 119.8800511 375.723200
21179 21188 21186 1 120.0200517 532.790560
21179 21188 21189 1 119.8800511 375.723200
21186 21188 21189 1 119.8800511 375.723200
21190 21191 21192 1 119.8800511 375.723200
21190 21191 21200 1 119.8800511 375.723200
21192 21191 21200 1 120.0200517 532.790560
21191 21192 21193 1 121.3800518 83.010560
21191 21192 21194 1 120.0200517 532.790560
21193 21192 21194 1 121.3800518 83.010560
2296 21193 2297 1 109.50000 418.400000
2296 21193 2298 1 109.50000 418.400000
2296 21193 21192 1 103.70004 836.800000
2297 21193 2298 1 109.50000 418.400000
2297 21193 21192 1 103.70004 836.800000
2298 21193 21192 1 103.70004 836.800000
21192 21194 21195 1 119.8800511 375.723200
21192 21194 21196 1 120.0200517 532.790560
21195 21194 21196 1 119.8800511 375.723200
21194 21196 21197 1 119.8800511 375.723200
21194 21196 21198 1 120.0200517 532.790560
21197 21196 21198 1 119.8800511 375.723200
21196 21198 21199 1 119.8800511 375.723200
21196 21198 21200 1 120.0200517 532.790560
21199 21198 21200 1 119.8800511 375.723200
21191 21200 21198 1 120.0200517 532.790560
21191 21200 21201 1 119.8800511 375.723200
21198 21200 21201 1 119.8800511 375.723200
21202 21203 21204 1 119.8800511 375.723200
21202 21203 21212 1 119.8800511 375.723200
21204 21203 21212 1 120.0200517 532.790560
21203 21204 21205 1 121.3800518 83.010560
21203 21204 21206 1 120.0200517 532.790560
21205 21204 21206 1 121.3800518 83.010560
4650 21205 5919 1 109.50000 418.400000
4650 21205 11173 1 109.50000 418.400000
4650 21205 21204 1 103.70004 836.800000
5919 21205 11173 1 109.50000 418.400000
5919 21205 21204 1 103.70004 836.800000
11173 21205 21204 1 103.70004 836.800000
21204 21206 21207 1 119.8800511 375.723200
21204 21206 21208 1 120.0200517 532.790560
21207 21206 21208 1 119.8800511 375.723200
21206 21208 21209 1 119.8800511 375.723200
21206 21208 21210 1 120.0200517 532.790560
21209 21208 21210 1 119.8800511 375.723200
21208 21210 21211 1 119.8800511 375.723200
21208 21210 21212 1 120.0200517 532.790560
21211 21210 21212 1 119.8800511 375.723200
21203 21212 21210 1 120.0200517 532.790560
21203 21212 21213 1 119.8800511 375.723200
21210 21212 21213 1 119.8800511 375.723200
21214 21215 21216 1 119.8800511 375.723200
21214 21215 21224 1 119.8800511 375.723200
21216 21215 21224 1 120.0200517 532.790560
21215 21216 21217 1 121.3800518 83.010560
21215 21216 21218 1 120.0200517 532.790560
21217 21216 21218 1 121.3800518 83.010560
2161 21217 2162 1 109.50000 418.400000
2161 21217 2164 1 109.50000 418.400000
2161 21217 21216 1 103.70004 836.800000
2162 21217 2164 1 109.50000 418.400000
2162 21217 21216 1 103.70004 836.800000
2164 21217 21216 1 103.70004 836.800000
21216 21218 21219 1 119.8800511 375.723200
21216 21218 21220 1 120.0200517 532.790560
21219 21218 21220 1 119.8800511 375.723200
21218 21220 21221 1 119.8800511 375.723200
21218 21220 21222 1 120.0200517 532.790560
21221 21220 21222 1 119.8800511 375.723200
21220 21222 21223 1 119.8800511 375.723200
21220 21222 21224 1 120.0200517 532.790560
21223 21222 21224 1 119.8800511 375.723200
21215 21224 21222 1 120.0200517 532.790560
21215 21224 21225 1 119.8800511 375.723200
21222 21224 21225 1 119.8800511 375.723200
21226 21227 21228 1 119.8800511 375.723200
21226 21227 21236 1 119.8800511 375.723200
21228 21227 21236 1 120.0200517 532.790560
21227 21228 21229 1 121.3800518 83.010560
21227 21228 21230 1 120.0200517 532.790560
21229 21228 21230 1 121.3800518 83.010560
371 21229 8875 1 109.50000 418.400000
371 21229 9091 1 109.50000 418.400000
371 21229 21228 1 103.70004 836.800000
8875 21229 9091 1 109.50000 418.400000
8875 21229 21228 1 103.70004 836.800000
9091 21229 21228 1 103.70004 836.800000
21228 21230 21231 1 119.8800511 375.723200
21228 21230 21232 1 120.0200517 532.790560
21231 21230 21232 1 119.8800511 375.723200
21230 21232 21233 1 119.8800511 375.723200
21230 21232 21234 1 120.0200517 532.790560
21233 21232 21234 1 119.8800511 375.723200
21232 21234 21235 1 119.8800511 375.723200
21232 21234 21236 1 120.0200517 532.790560
21235 21234 21236 1 119.8800511 375.723200
21227 21236 21234 1 120.0200517 532.790560
21227 21236 21237 1 119.8800511 375.723200
21234 21236 21237 1 119.8800511 375.723200
21238 21239 21240 1 119.8800511 375.723200
21238 21239 21248 1 119.8800511 375.723200
21240 21239 21248 1 120.0200517 532.790560
21239 21240 21241 1 121.3800518 83.010560
21239 21240 21242 1 120.0200517 532.790560
21241 21240 21242 1 121.3800518 83.010560
1980 21241 3336 1 109.50000 418.400000
1980 21241 3337 1 109.50000 418.400000
1980 21241 21240 1 103.70004 836.800000
3336 21241 3337 1 109.50000 418.400000
3336 21241 21240 1 103.70004 836.800000
3337 21241 21240 1 103.70004 836.800000
21240 21242 21243 1 119.8800511 375.723200
21240 21242 21244 1 120.0200517 532.790560
21243 21242 21244 1 119.8800511 375.723200
21242 21244 21245 1 119.8800511 375.723200
21242 21244 21246 1 120.0200517 532.790560
21245 21244 21246 1 119.8800511 375.723200
21244 21246 21247 1 119.8800511 375.723200
21244 21246 21248 1 120.0200517 532.790560
21247 21246 21248 1 119.8800511 375.723200
21239 21248 21246 1 120.0200517 532.790560
21239 21248 21249 1 119.8800511 375.723200
21246 21248 21249 1 119.8800511 375.723200
21250 21251 21252 1 119.8800511 375.723200
21250 21251 21260 1 119.8800511 375.723200
21252 21251 21260 1 120.0200517 532.790560
21251 21252 21253 1 121.3800518 83.010560
21251 21252 21254 1 120.0200517 532.790560
21253 21252 21254 1 121.3800518 83.010560
2009 21253 5572 1 109.50000 418.400000
2009 21253 6924 1 109.50000 418.400000
2009 21253 21252 1 103.70004 836.800000
5572 21253 6924 1 109.50000 418.400000
5572 21253 21252 1 103.70004 836.800000
6924 21253 21252 1 103.70004 836.800000
21252 21254 21255 1 119.8800511 375.723200
21252 21254 21256 1 120.0200517 532.790560
21255 21254 21256 1 119.8800511 375.723200
21254 21256 21257 1 119.8800511 375.723200
21254 21256 21258 1 120.0200517 532.790560
21257 21256 21258 1 119.8800511 375.723200
21256 21258 21259 1 119.8800511 375.723200
21256 21258 21260 1 120.0200517 532.790560
21259 21258 21260 1 119.8800511 375.723200
21251 21260 21258 1 120.0200517 532.790560
21251 21260 21261 1 119.8800511 375.723200
21258 21260 21261 1 119.8800511 375.723200
21262 21263 21264 1 119.8800511 375.723200
21262 21263 21272 1 119.8800511 375.723200
21264 21263 21272 1 120.0200517 532.790560
21263 21264 21265 1 121.3800518 83.010560
21263 21264 21266 1 120.0200517 532.790560
21265 21264 21266 1 121.3800518 83.010560
1635 21265 10513 1 109.50000 418.400000
1635 21265 10514 1 109.50000 418.400000
1635 21265 21264 1 103.70004 836.800000
10513 21265 10514 1 109.50000 418.400000
10513 21265 21264 1 103.70004 836.800000
10514 21265 21264 1 103.70004 836.800000
21264 21266 21267 1 119.8800511 375.723200
21264 21266 21268 1 120.0200517 532.790560
21267 21266 21268 1 119.8800511 375.723200
21266 21268 21269 1 119.8800511 375.723200
21266 21268 21270 1 120.0200517 532.790560
21269 21268 21270 1 119.8800511 375.723200
21268 21270 21271 1 119.8800511 375.723200
21268 21270 21272 1 120.0200517 532.790560
21271 21270 21272 1 119.8800511 375.723200
21263 21272 21270 1 120.0200517 532.790560
21263 21272 21273 1 119.8800511 375.723200
21270 21272 21273 1 119.8800511 375.723200
21274 21275 21276 1 119.8800511 375.723200
21274 21275 21284 1 119.8800511 375.723200
21276 21275 21284 1 120.0200517 532.790560
21275 21276 21277 1 121.3800518 83.010560
21275 21276 21278 1 120.0200517 532.790560
21277 21276 21278 1 121.3800518 83.010560
2986 21277 4060 1 109.50000 418.400000
2986 21277 11179 1 109.50000 418.400000
2986 21277 21276 1 103.70004 836.800000
4060 21277 11179 1 109.50000 418.400000
4060 21277 21276 1 103.70004 836.800000
11179 21277 21276 1 103.70004 836.800000
21276 21278 21279 1 119.8800511 375.723200
21276 21278 21280 1 120.0200517 532.790560
21279 21278 21280 1 119.8800511 375.723200
21278 21280 21281 1 119.8800511 375.723200
21278 21280 21282 1 120.0200517 532.790560
21281 21280 21282 1 119.8800511 375.723200
21280 21282 21283 1 119.8800511 375.723200
21280 21282 21284 1 120.0200517 532.790560
21283 21282 21284 1 119.8800511 375.723200
21275 21284 21282 1 120.0200517 532.790560
21275 21284 21285 1 119.8800511 375.723200
21282 21284 21285 1 119.8800511 375.723200
21286 21287 21288 1 119.8800511 375.723200
21286 21287 21296 1 119.8800511 375.723200
21288 21287 21296 1 120.0200517 532.790560
21287 21288 21289 1 121.3800518 83.010560
21287 21288 21290 1 120.0200517 532.790560
21289 21288 21290 1 121.3800518 83.010560
8962 21289 9672 1 109.50000 418.400000
8962 21289 11141 1 109.50000 418.400000
8962 21289 21288 1 103.70004 836.800000
9672 21289 11141 1 109.50000 418.400000
9672 21289 21288 1 103.70004 836.800000
11141 21289 21288 1 103.70004 836.800000
21288 21290 21291 1 119.8800511 375.723200
21288 21290 21292 1 120.0200517 532.790560
21291 21290 21292 1 119.8800511 375.723200
21290 21292 21293 1 119.8800511 375.723200
21290 21292 21294 1 120.0200517 532.790560
21293 21292 21294 1 119.8800511 375.723200
21292 21294 21295 1 119.8800511 375.723200
21292 21294 21296 1 120.0200517 532.790560
21295 21294 21296 1 119.8800511 375.723200
21287 21296 21294 1 120.0200517 532.790560
21287 21296 21297 1 119.8800511 375.723200
21294 21296 21297 1 119.8800511 375.723200
21298 21299 21300 1 119.8800511 375.723200
21298 21299 21308 1 119.8800511 375.723200
21300 21299 21308 1 120.0200517 532.790560
21299 21300 21301 1 121.3800518 83.010560
21299 21300 21302 1 120.0200517 532.790560
21301 21300 21302 1 121.3800518 83.010560
6079 21301 6080 1 109.50000 418.400000
6079 21301 11198 1 109.50000 418.400000
6079 21301 21300 1 103.70004 836.800000
6080 21301 11198 1 109.50000 418.400000
6080 21301 21300 1 103.70004 836.800000
11198 21301 21300 1 103.70004 836.800000
21300 21302 21303 1 119.8800511 375.723200
21300 21302 21304 1 120.0200517 532.790560
21303 21302 21304 1 119.8800511 375.723200
21302 21304 21305 1 119.8800511 375.723200
21302 21304 21306 1 120.0200517 532.790560
21305 21304 21306 1 119.8800511 375.723200
21304 21306 21307 1 119.8800511 375.723200
21304 21306 21308 1 120.0200517 532.790560
21307 21306 21308 1 119.8800511 375.723200
21299 21308 21306 1 120.0200517 532.790560
21299 21308 21309 1 119.8800511 375.723200
21306 21308 21309 1 119.8800511 375.723200
21310 21311 21312 1 119.8800511 375.723200
21310 21311 21320 1 119.8800511 375.723200
21312 21311 21320 1 120.0200517 532.790560
21311 21312 21313 1 121.3800518 83.010560
21311 21312 21314 1 120.0200517 532.790560
21313 21312 21314 1 121.3800518 83.010560
285 21313 6031 1 109.50000 418.400000
285 21313 11139 1 109.50000 418.400000
285 21313 21312 1 103.70004 836.800000
6031 21313 11139 1 109.50000 418.400000
6031 21313 21312 1 103.70004 836.800000
11139 21313 21312 1 103.70004 836.800000
21312 21314 21315 1 119.8800511 375.723200
21312 21314 21316 1 120.0200517 532.790560
21315 21314 21316 1 119.8800511 375.723200
21314 21316 21317 1 119.8800511 375.723200
21314 21316 21318 1 120.0200517 532.790560
21317 21316 21318 1 119.8800511 375.723200
21316 21318 21319 1 119.8800511 375.723200
21316 21318 21320 1 120.0200517 532.790560
21319 21318 21320 1 119.8800511 375.723200
21311 21320 21318 1 120.0200517 532.790560
21311 21320 21321 1 119.8800511 375.723200
21318 21320 21321 1 119.8800511 375.723200
21322 21323 21324 1 119.8800511 375.723200
21322 21323 21332 1 119.8800511 375.723200
21324 21323 21332 1 120.0200517 532.790560
21323 21324 21325 1 121.3800518 83.010560
21323 21324 21326 1 120.0200517 532.790560
21325 21324 21326 1 121.3800518 83.010560
3645 21325 6032 1 109.50000 418.400000
3645 21325 9558 1 109.50000 418.400000
3645 21325 21324 1 103.70004 836.800000
6032 21325 9558 1 109.50000 418.400000
6032 21325 21324 1 103.70004 836.800000
9558 21325 21324 1 103.70004 836.800000
21324 21326 21327 1 119.8800511 375.723200
21324 21326 21328 1 120.0200517 532.790560
21327 21326 21328 1 119.8800511 375.723200
21326 21328 21329 1 119.8800511 375.723200
21326 21328 21330 1 120.0200517 532.790560
21329 21328 21330 1 119.8800511 375.723200
21328 21330 21331 1 119.8800511 375.723200
21328 21330 21332 1 120.0200517 532.790560
21331 21330 21332 1 119.8800511 375.723200
21323 21332 21330 1 120.0200517 532.790560
21323 21332 21333 1 119.8800511 375.723200
21330 21332 21333 1 119.8800511 375.723200
21334 21335 21336 1 119.8800511 375.723200
21334 21335 21344 1 119.8800511 375.723200
21336 21335 21344 1 120.0200517 532.790560
21335 21336 21337 1 121.3800518 83.010560
21335 21336 21338 1 120.0200517 532.790560
21337 21336 21338 1 121.3800518 83.010560
2748 21337 10317 1 109.50000 418.400000
2748 21337 11043 1 109.50000 418.400000
2748 21337 21336 1 103.70004 836.800000
10317 21337 11043 1 109.50000 418.400000
10317 21337 21336 1 103.70004 836.800000
11043 21337 21336 1 103.70004 836.800000
21336 21338 21339 1 119.8800511 375.723200
21336 21338 21340 1 120.0200517 532.790560
21339 21338 21340 1 119.8800511 375.723200
21338 21340 21341 1 119.8800511 375.723200
21338 21340 21342 1 120.0200517 532.790560
21341 21340 21342 1 119.8800511 375.723200
21340 21342 21343 1 119.8800511 375.723200
21340 21342 21344 1 120.0200517 532.790560
21343 21342 21344 1 119.8800511 375.723200
21335 21344 21342 1 120.0200517 532.790560
21335 21344 21345 1 119.8800511 375.723200
21342 21344 21345 1 119.8800511 375.723200
21346 21347 21348 1 119.8800511 375.723200
21346 21347 21356 1 119.8800511 375.723200
21348 21347 21356 1 120.0200517 532.790560
21347 21348 21349 1 121.3800518 83.010560
21347 21348 21350 1 120.0200517 532.790560
21349 21348 21350 1 121.3800518 83.010560
4688 21349 5979 1 109.50000 418.400000
4688 21349 9965 1 109.50000 418.400000
4688 21349 21348 1 103.70004 836.800000
5979 21349 9965 1 109.50000 418.400000
5979 21349 21348 1 103.70004 836.800000
9965 21349 21348 1 103.70004 836.800000
21348 21350 21351 1 119.8800511 375.723200
21348 21350 21352 1 120.0200517 532.790560
21351 21350 21352 1 119.8800511 375.723200
21350 21352 21353 1 119.8800511 375.723200
21350 21352 21354 1 120.0200517 532.790560
21353 21352 21354 1 119.8800511 375.723200
21352 21354 21355 1 119.8800511 375.723200
21352 21354 21356 1 120.0200517 532.790560
21355 21354 21356 1 119.8800511 375.723200
21347 21356 21354 1 120.0200517 532.790560
21347 21356 21357 1 119.8800511 375.723200
21354 21356 21357 1 119.8800511 375.723200
21358 21359 21360 1 119.8800511 375.723200
21358 21359 21368 1 119.8800511 375.723200
21360 21359 21368 1 120.0200517 532.790560
21359 21360 21361 1 121.3800518 83.010560
21359 21360 21362 1 120.0200517 532.790560
21361 21360 21362 1 121.3800518 83.010560
1170 21361 4041 1 109.50000 418.400000
1170 21361 4042 1 109.50000 418.400000
1170 21361 21360 1 103.70004 836.800000
4041 21361 4042 1 109.50000 418.400000
4041 21361 21360 1 103.70004 836.800000
4042 21361 21360 1 103.70004 836.800000
21360 21362 21363 1 119.8800511 375.723200
21360 21362 21364 1 120.0200517 532.790560
21363 21362 21364 1 119.8800511 375.723200
21362 21364 21365 1 119.8800511 375.723200
21362 21364 21366 1 120.0200517 532.790560
21365 21364 21366 1 119.8800511 375.723200
21364 21366 21367 1 119.8800511 375.723200
21364 21366 21368 1 120.0200517 532.790560
21367 21366 21368 1 119.8800511 375.723200
21359 21368 21366 1 120.0200517 532.790560
21359 21368 21369 1 119.8800511 375.723200
21366 21368 21369 1 119.8800511 375.723200
21370 21371 21372 1 119.8800511 375.723200
21370 21371 21380 1 119.8800511 375.723200
21372 21371 21380 1 120.0200517 532.790560
21371 21372 21373 1 121.3800518 83.010560
21371 21372 21374 1 120.0200517 532.790560
21373 21372 21374 1 121.3800518 83.010560
5 21373 6 1 109.50000 418.400000
5 21373 3184 1 109.50000 418.400000
5 21373 21372 1 103.70004 836.800000
6 21373 3184 1 109.50000 418.400000
6 21373 21372 1 103.70004 836.800000
3184 21373 21372 1 103.70004 836.800000
21372 21374 21375 1 119.8800511 375.723200
21372 21374 21376 1 120.0200517 532.790560
21375 21374 21376 1 119.8800511 375.723200
21374 21376 21377 1 119.8800511 375.723200
21374 21376 21378 1 120.0200517 532.790560
21377 21376 21378 1 119.8800511 375.723200
21376 21378 21379 1 119.8800511 375.723200
21376 21378 21380 1 120.0200517 532.790560
21379 21378 21380 1 119.8800511 375.723200
21371 21380 21378 1 120.0200517 532.790560
21371 21380 21381 1 119.8800511 375.723200
21378 21380 21381 1 119.8800511 375.723200
21382 21383 21384 1 119.8800511 375.723200
21382 21383 21392 1 119.8800511 375.723200
21384 21383 21392 1 120.0200517 532.790560
21383 21384 21385 1 121.3800518 83.010560
21383 21384 21386 1 120.0200517 532.790560
21385 21384 21386 1 121.3800518 83.010560
7288 21385 8084 1 109.50000 418.400000
7288 21385 8961 1 109.50000 418.400000
7288 21385 21384 1 103.70004 836.800000
8084 21385 8961 1 109.50000 418.400000
8084 21385 21384 1 103.70004 836.800000
8961 21385 21384 1 103.70004 836.800000
21384 21386 21387 1 119.8800511 375.723200
21384 21386 21388 1 120.0200517 532.790560
21387 21386 21388 1 119.8800511 375.723200
21386 21388 21389 1 119.8800511 375.723200
21386 21388 21390 1 120.0200517 532.790560
21389 21388 21390 1 119.8800511 375.723200
21388 21390 21391 1 119.8800511 375.723200
21388 21390 21392 1 120.0200517 532.790560
21391 21390 21392 1 119.8800511 375.723200
21383 21392 21390 1 120.0200517 532.790560
21383 21392 21393 1 119.8800511 375.723200
21390 21392 21393 1 119.8800511 375.723200
21394 21395 21396 1 119.8800511 375.723200
21394 21395 21404 1 119.8800511 375.723200
21396 21395 21404 1 120.0200517 532.790560
21395 21396 21397 1 121.3800518 83.010560
21395 21396 21398 1 120.0200517 532.790560
21397 21396 21398 1 121.3800518 83.010560
2700 21397 4994 1 109.50000 418.400000
2700 21397 10121 1 109.50000 418.400000
2700 21397 21396 1 103.70004 836.800000
4994 21397 10121 1 109.50000 418.400000
4994 21397 21396 1 103.70004 836.800000
10121 21397 21396 1 103.70004 836.800000
21396 21398 21399 1 119.8800511 375.723200
21396 21398 21400 1 120.0200517 532.790560
21399 21398 21400 1 119.8800511 375.723200
21398 21400 21401 1 119.8800511 375.723200
21398 21400 21402 1 120.0200517 532.790560
21401 21400 21402 1 119.8800511 375.723200
21400 21402 21403 1 119.8800511 375.723200
21400 21402 21404 1 120.0200517 532.790560
21403 21402 21404 1 119.8800511 375.723200
21395 21404 21402 1 120.0200517 532.790560
21395 21404 21405 1 119.8800511 375.723200
21402 21404 21405 1 119.8800511 375.723200
21406 21407 21408 1 119.8800511 375.723200
21406 21407 21416 1 119.8800511 375.723200
21408 21407 21416 1 120.0200517 532.790560
21407 21408 21409 1 121.3800518 83.010560
21407 21408 21410 1 120.0200517 532.790560
21409 21408 21410 1 121.3800518 83.010560
10678 21409 10964 1 109.50000 418.400000
10678 21409 10965 1 109.50000 418.400000
10678 21409 21408 1 103.70004 836.800000
10964 21409 10965 1 109.50000 418.400000
10964 21409 21408 1 103.70004 836.800000
10965 21409 21408 1 103.70004 836.800000
21408 21410 21411 1 119.8800511 375.723200
21408 21410 21412 1 120.0200517 532.790560
21411 21410 21412 1 119.8800511 375.723200
21410 21412 21413 1 119.8800511 375.723200
21410 21412 21414 1 120.0200517 532.790560
21413 21412 21414 1 119.8800511 375.723200
21412 21414 21415 1 119.8800511 375.723200
21412 21414 21416 1 120.0200517 532.790560
21415 21414 21416 1 119.8800511 375.723200
21407 21416 21414 1 120.0200517 532.790560
21407 21416 21417 1 119.8800511 375.723200
21414 21416 21417 1 119.8800511 375.723200
21418 21419 21420 1 119.8800511 375.723200
21418 21419 21428 1 119.8800511 375.723200
21420 21419 21428 1 120.0200517 532.790560
21419 21420 21421 1 121.3800518 83.010560
21419 21420 21422 1 120.0200517 532.790560
21421 21420 21422 1 121.3800518 83.010560
4991 21421 6726 1 109.50000 418.400000
4991 21421 11174 1 109.50000 418.400000
4991 21421 21420 1 103.70004 836.800000
6726 21421 11174 1 109.50000 418.400000
6726 21421 21420 1 103.70004 836.800000
11174 21421 21420 1 103.70004 836.800000
21420 21422 21423 1 119.8800511 375.723200
21420 21422 21424 1 120.0200517 532.790560
21423 21422 21424 1 119.8800511 375.723200
21422 21424 21425 1 119.8800511 375.723200
21422 21424 21426 1 120.0200517 532.790560
21425 21424 21426 1 119.8800511 375.723200
21424 21426 21427 1 119.8800511 375.723200
21424 21426 21428 1 120.0200517 532.790560
21427 21426 21428 1 119.8800511 375.723200
21419 21428 21426 1 120.0200517 532.790560
21419 21428 21429 1 119.8800511 375.723200
21426 21428 21429 1 119.8800511 375.723200
21430 21431 21432 1 119.8800511 375.723200
21430 21431 21440 1 119.8800511 375.723200
21432 21431 21440 1 120.0200517 532.790560
21431 21432 21433 1 121.3800518 83.010560
21431 21432 21434 1 120.0200517 532.790560
21433 21432 21434 1 121.3800518 83.010560
6721 21433 6722 1 109.50000 418.400000
6721 21433 6723 1 109.50000 418.400000
6721 21433 21432 1 103.70004 836.800000
6722 21433 6723 1 109.50000 418.400000
6722 21433 21432 1 103.70004 836.800000
6723 21433 21432 1 103.70004 836.800000
21432 21434 21435 1 119.8800511 375.723200
21432 21434 21436 1 120.0200517 532.790560
21435 21434 21436 1 119.8800511 375.723200
21434 21436 21437 1 119.8800511 375.723200
21434 21436 21438 1 120.0200517 532.790560
21437 21436 21438 1 119.8800511 375.723200
21436 21438 21439 1 119.8800511 375.723200
21436 21438 21440 1 120.0200517 532.790560
21439 21438 21440 1 119.8800511 375.723200
21431 21440 21438 1 120.0200517 532.790560
21431 21440 21441 1 119.8800511 375.723200
21438 21440 21441 1 119.8800511 375.723200
21442 21443 21444 1 119.8800511 375.723200
21442 21443 21452 1 119.8800511 375.723200
21444 21443 21452 1 120.0200517 532.790560
21443 21444 21445 1 121.3800518 83.010560
21443 21444 21446 1 120.0200517 532.790560
21445 21444 21446 1 121.3800518 83.010560
5141 21445 5142 1 109.50000 418.400000
5141 21445 5143 1 109.50000 418.400000
5141 21445 21444 1 103.70004 836.800000
5142 21445 5143 1 109.50000 418.400000
5142 21445 21444 1 103.70004 836.800000
5143 21445 21444 1 103.70004 836.800000
21444 21446 21447 1 119.8800511 375.723200
21444 21446 21448 1 120.0200517 532.790560
21447 21446 21448 1 119.8800511 375.723200
21446 21448 21449 1 119.8800511 375.723200
21446 21448 21450 1 120.0200517 532.790560
21449 21448 21450 1 119.8800511 375.723200
21448 21450 21451 1 119.8800511 375.723200
21448 21450 21452 1 120.0200517 532.790560
21451 21450 21452 1 119.8800511 375.723200
21443 21452 21450 1 120.0200517 532.790560
21443 21452 21453 1 119.8800511 375.723200
21450 21452 21453 1 119.8800511 375.723200
21454 21455 21456 1 119.8800511 375.723200
21454 21455 21464 1 119.8800511 375.723200
21456 21455 21464 1 120.0200517 532.790560
21455 21456 21457 1 121.3800518 83.010560
21455 21456 21458 1 120.0200517 532.790560
21457 21456 21458 1 121.3800518 83.010560
5715 21457 5716 1 109.50000 418.400000
5715 21457 5717 1 109.50000 418.400000
5715 21457 21456 1 103.70004 836.800000
5716 21457 5717 1 109.50000 418.400000
5716 21457 21456 1 103.70004 836.800000
5717 21457 21456 1 103.70004 836.800000
21456 21458 21459 1 119.8800511 375.723200
21456 21458 21460 1 120.0200517 532.790560
21459 21458 21460 1 119.8800511 375.723200
21458 21460 21461 1 119.8800511 375.723200
21458 21460 21462 1 120.0200517 532.790560
21461 21460 21462 1 119.8800511 375.723200
21460 21462 21463 1 119.8800511 375.723200
21460 21462 21464 1 120.0200517 532.790560
21463 21462 21464 1 119.8800511 375.723200
21455 21464 21462 1 120.0200517 532.790560
21455 21464 21465 1 119.8800511 375.723200
21462 21464 21465 1 119.8800511 375.723200
21466 21467 21468 1 119.8800511 375.723200
21466 21467 21476 1 119.8800511 375.723200
21468 21467 21476 1 120.0200517 532.790560
21467 21468 21469 1 121.3800518 83.010560
21467 21468 21470 1 120.0200517 532.790560
21469 21468 21470 1 121.3800518 83.010560
4476 21469 4477 1 109.50000 418.400000
4476 21469 4478 1 109.50000 418.400000
4476 21469 21468 1 103.70004 836.800000
4477 21469 4478 1 109.50000 418.400000
4477 21469 21468 1 103.70004 836.800000
4478 21469 21468 1 103.70004 836.800000
21468 21470 21471 1 119.8800511 375.723200
21468 21470 21472 1 120.0200517 532.790560
21471 21470 21472 1 119.8800511 375.723200
21470 21472 21473 1 119.8800511 375.723200
21470 21472 21474 1 120.0200517 532.790560
21473 21472 21474 1 119.8800511 375.723200
21472 21474 21475 1 119.8800511 375.723200
21472 21474 21476 1 120.0200517 532.790560
21475 21474 21476 1 119.8800511 375.723200
21467 21476 21474 1 120.0200517 532.790560
21467 21476 21477 1 119.8800511 375.723200
21474 21476 21477 1 119.8800511 375.723200
21478 21479 21480 1 119.8800511 375.723200
21478 21479 21488 1 119.8800511 375.723200
21480 21479 21488 1 120.0200517 532.790560
21479 21480 21481 1 121.3800518 83.010560
21479 21480 21482 1 120.0200517 532.790560
21481 21480 21482 1 121.3800518 83.010560
5786 21481 9740 1 109.50000 418.400000
5786 21481 10814 1 109.50000 418.400000
5786 21481 21480 1 103.70004 836.800000
9740 21481 10814 1 109.50000 418.400000
9740 21481 21480 1 103.70004 836.800000
10814 21481 21480 1 103.70004 836.800000
21480 21482 21483 1 119.8800511 375.723200
21480 21482 21484 1 120.0200517 532.790560
21483 21482 21484 1 119.8800511 375.723200
21482 21484 21485 1 119.8800511 375.723200
21482 21484 21486 1 120.0200517 532.790560
21485 21484 21486 1 119.8800511 375.723200
21484 21486 21487 1 119.8800511 375.723200
21484 21486 21488 1 120.0200517 532.790560
21487 21486 21488 1 119.8800511 375.723200
21479 21488 21486 1 120.0200517 532.790560
21479 21488 21489 1 119.8800511 375.723200
21486 21488 21489 1 119.8800511 375.723200
21490 21491 21492 1 119.8800511 375.723200
21490 21491 21500 1 119.8800511 375.723200
21492 21491 21500 1 120.0200517 532.790560
21491 21492 21493 1 121.3800518 83.010560
21491 21492 21494 1 120.0200517 532.790560
21493 21492 21494 1 121.3800518 83.010560
1896 21493 6581 1 109.50000 418.400000
1896 21493 11150 1 109.50000 418.400000
1896 21493 21492 1 103.70004 836.800000
6581 21493 11150 1 109.50000 418.400000
6581 21493 21492 1 103.70004 836.800000
11150 21493 21492 1 103.70004 836.800000
21492 21494 21495 1 119.8800511 375.723200
21492 21494 21496 1 120.0200517 532.790560
21495 21494 21496 1 119.8800511 375.723200
21494 21496 21497 1 119.8800511 375.723200
21494 21496 21498 1 120.0200517 532.790560
21497 21496 21498 1 119.8800511 375.723200
21496 21498 21499 1 119.8800511 375.723200
21496 21498 21500 1 120.0200517 532.790560
21499 21498 21500 1 119.8800511 375.723200
21491 21500 21498 1 120.0200517 532.790560
21491 21500 21501 1 119.8800511 375.723200
21498 21500 21501 1 119.8800511 375.723200
21502 21503 21504 1 119.8800511 375.723200
21502 21503 21512 1 119.8800511 375.723200
21504 21503 21512 1 120.0200517 532.790560
21503 21504 21505 1 121.3800518 83.010560
21503 21504 21506 1 120.0200517 532.790560
21505 21504 21506 1 121.3800518 83.010560
4501 21505 10840 1 109.50000 418.400000
4501 21505 10841 1 109.50000 418.400000
4501 21505 21504 1 103.70004 836.800000
10840 21505 10841 1 109.50000 418.400000
10840 21505 21504 1 103.70004 836.800000
10841 21505 21504 1 103.70004 836.800000
21504 21506 21507 1 119.8800511 375.723200
21504 21506 21508 1 120.0200517 532.790560
21507 21506 21508 1 119.8800511 375.723200
21506 21508 21509 1 119.8800511 375.723200
21506 21508 21510 1 120.0200517 532.790560
21509 21508 21510 1 119.8800511 375.723200
21508 21510 21511 1 119.8800511 375.723200
21508 21510 21512 1 120.0200517 532.790560
21511 21510 21512 1 119.8800511 375.723200
21503 21512 21510 1 120.0200517 532.790560
21503 21512 21513 1 119.8800511 375.723200
21510 21512 21513 1 119.8800511 375.723200
21514 21515 21516 1 119.8800511 375.723200
21514 21515 21524 1 119.8800511 375.723200
21516 21515 21524 1 120.0200517 532.790560
21515 21516 21517 1 121.3800518 83.010560
21515 21516 21518 1 120.0200517 532.790560
21517 21516 21518 1 121.3800518 83.010560
1715 21517 7141 1 109.50000 418.400000
1715 21517 8493 1 109.50000 418.400000
1715 21517 21516 1 103.70004 836.800000
7141 21517 8493 1 109.50000 418.400000
7141 21517 21516 1 103.70004 836.800000
8493 21517 21516 1 103.70004 836.800000
21516 21518 21519 1 119.8800511 375.723200
21516 21518 21520 1 120.0200517 532.790560
21519 21518 21520 1 119.8800511 375.723200
21518 21520 21521 1 119.8800511 375.723200
21518 21520 21522 1 120.0200517 532.790560
21521 21520 21522 1 119.8800511 375.723200
21520 21522 21523 1 119.8800511 375.723200
21520 21522 21524 1 120.0200517 532.790560
21523 21522 21524 1 119.8800511 375.723200
21515 21524 21522 1 120.0200517 532.790560
21515 21524 21525 1 119.8800511 375.723200
21522 21524 21525 1 119.8800511 375.723200
21526 21527 21528 1 119.8800511 375.723200
21526 21527 21536 1 119.8800511 375.723200
21528 21527 21536 1 120.0200517 532.790560
21527 21528 21529 1 121.3800518 83.010560
21527 21528 21530 1 120.0200517 532.790560
21529 21528 21530 1 121.3800518 83.010560
4771 21529 7099 1 109.50000 418.400000
4771 21529 7842 1 109.50000 418.400000
4771 21529 21528 1 103.70004 836.800000
7099 21529 7842 1 109.50000 418.400000
7099 21529 21528 1 103.70004 836.800000
7842 21529 21528 1 103.70004 836.800000
21528 21530 21531 1 119.8800511 375.723200
21528 21530 21532 1 120.0200517 532.790560
21531 21530 21532 1 119.8800511 375.723200
21530 21532 21533 1 119.8800511 375.723200
21530 21532 21534 1 120.0200517 532.790560
21533 21532 21534 1 119.8800511 375.723200
21532 21534 21535 1 119.8800511 375.723200
21532 21534 21536 1 120.0200517 532.790560
21535 21534 21536 1 119.8800511 375.723200
21527 21536 21534 1 120.0200517 532.790560
21527 21536 21537 1 119.8800511 375.723200
21534 21536 21537 1 119.8800511 375.723200
21538 21539 21540 1 119.8800511 375.723200
21538 21539 21548 1 119.8800511 375.723200
21540 21539 21548 1 120.0200517 532.790560
21539 21540 21541 1 121.3800518 83.010560
21539 21540 21542 1 120.0200517 532.790560
21541 21540 21542 1 121.3800518 83.010560
5468 21541 8361 1 109.50000 418.400000
5468 21541 11029 1 109.50000 418.400000
5468 21541 21540 1 103.70004 836.800000
8361 21541 11029 1 109.50000 418.400000
8361 21541 21540 1 103.70004 836.800000
11029 21541 21540 1 103.70004 836.800000
21540 21542 21543 1 119.8800511 375.723200
21540 21542 21544 1 120.0200517 532.790560
21543 21542 21544 1 119.8800511 375.723200
21542 21544 21545 1 119.8800511 375.723200
21542 21544 21546 1 120.0200517 532.790560
21545 21544 21546 1 119.8800511 375.723200
21544 21546 21547 1 119.8800511 375.723200
21544 21546 21548 1 120.0200517 532.790560
21547 21546 21548 1 119.8800511 375.723200
21539 21548 21546 1 120.0200517 532.790560
21539 21548 21549 1 119.8800511 375.723200
21546 21548 21549 1 119.8800511 375.723200
21550 21551 21552 1 119.8800511 375.723200
21550 21551 21560 1 119.8800511 375.723200
21552 21551 21560 1 120.0200517 532.790560
21551 21552 21553 1 121.3800518 83.010560
21551 21552 21554 1 120.0200517 532.790560
21553 21552 21554 1 121.3800518 83.010560
1858 21553 6427 1 109.50000 418.400000
1858 21553 7257 1 109.50000 418.400000
1858 21553 21552 1 103.70004 836.800000
6427 21553 7257 1 109.50000 418.400000
6427 21553 21552 1 103.70004 836.800000
7257 21553 21552 1 103.70004 836.800000
21552 21554 21555 1 119.8800511 375.723200
21552 21554 21556 1 120.0200517 532.790560
21555 21554 21556 1 119.8800511 375.723200
21554 21556 21557 1 119.8800511 375.723200
21554 21556 21558 1 120.0200517 532.790560
21557 21556 21558 1 119.8800511 375.723200
21556 21558 21559 1 119.8800511 375.723200
21556 21558 21560 1 120.0200517 532.790560
21559 21558 21560 1 119.8800511 375.723200
21551 21560 21558 1 120.0200517 532.790560
21551 21560 21561 1 119.8800511 375.723200
21558 21560 21561 1 119.8800511 375.723200
21562 21563 21564 1 119.8800511 375.723200
21562 21563 21572 1 119.8800511 375.723200
21564 21563 21572 1 120.0200517 532.790560
21563 21564 21565 1 121.3800518 83.010560
21563 21564 21566 1 120.0200517 532.790560
21565 21564 21566 1 121.3800518 83.010560
4648 21565 4700 1 109.50000 418.400000
4648 21565 4701 1 109.50000 418.400000
4648 21565 21564 1 103.70004 836.800000
4700 21565 4701 1 109.50000 418.400000
4700 21565 21564 1 103.70004 836.800000
4701 21565 21564 1 103.70004 836.800000
21564 21566 21567 1 119.8800511 375.723200
21564 21566 21568 1 120.0200517 532.790560
21567 21566 21568 1 119.8800511 375.723200
21566 21568 21569 1 119.8800511 375.723200
21566 21568 21570 1 120.0200517 532.790560
21569 21568 21570 1 119.8800511 375.723200
21568 21570 21571 1 119.8800511 375.723200
21568 21570 21572 1 120.0200517 532.790560
21571 21570 21572 1 119.8800511 375.723200
21563 21572 21570 1 120.0200517 532.790560
21563 21572 21573 1 119.8800511 375.723200
21570 21572 21573 1 119.8800511 375.723200
21574 21575 21576 1 119.8800511 375.723200
21574 21575 21584 1 119.8800511 375.723200
21576 21575 21584 1 120.0200517 532.790560
21575 21576 21577 1 121.3800518 83.010560
21575 21576 21578 1 120.0200517 532.790560
21577 21576 21578 1 121.3800518 83.010560
1040 21577 7285 1 109.50000 418.400000
1040 21577 10587 1 109.50000 418.400000
1040 21577 21576 1 103.70004 836.800000
7285 21577 10587 1 109.50000 418.400000
7285 21577 21576 1 103.70004 836.800000
10587 21577 21576 1 103.70004 836.800000
21576 21578 21579 1 119.8800511 375.723200
21576 21578 21580 1 120.0200517 532.790560
21579 21578 21580 1 119.8800511 375.723200
21578 21580 21581 1 119.8800511 375.723200
21578 21580 21582 1 120.0200517 532.790560
21581 21580 21582 1 119.8800511 375.723200
21580 21582 21583 1 119.8800511 375.723200
21580 21582 21584 1 120.0200517 532.790560
21583 21582 21584 1 119.8800511 375.723200
21575 21584 21582 1 120.0200517 532.790560
21575 21584 21585 1 119.8800511 375.723200
21582 21584 21585 1 119.8800511 375.723200
21586 21587 21588 1 119.8800511 375.723200
21586 21587 21596 1 119.8800511 375.723200
21588 21587 21596 1 120.0200517 532.790560
21587 21588 21589 1 121.3800518 83.010560
21587 21588 21590 1 120.0200517 532.790560
21589 21588 21590 1 121.3800518 83.010560
1972 21589 5030 1 109.50000 418.400000
1972 21589 5031 1 109.50000 418.400000
1972 21589 21588 1 103.70004 836.800000
5030 21589 5031 1 109.50000 418.400000
5030 21589 21588 1 103.70004 836.800000
5031 21589 21588 1 103.70004 836.800000
21588 21590 21591 1 119.8800511 375.723200
21588 21590 21592 1 120.0200517 532.790560
21591 21590 21592 1 119.8800511 375.723200
21590 21592 21593 1 119.8800511 375.723200
21590 21592 21594 1 120.0200517 532.790560
21593 21592 21594 1 119.8800511 375.723200
21592 21594 21595 1 119.8800511 375.723200
21592 21594 21596 1 120.0200517 532.790560
21595 21594 21596 1 119.8800511 375.723200
21587 21596 21594 1 120.0200517 532.790560
21587 21596 21597 1 119.8800511 375.723200
21594 21596 21597 1 119.8800511 375.723200
21598 21599 21600 1 119.8800511 375.723200
21598 21599 21608 1 119.8800511 375.723200
21600 21599 21608 1 120.0200517 532.790560
21599 21600 21601 1 121.3800518 83.010560
21599 21600 21602 1 120.0200517 532.790560
21601 21600 21602 1 121.3800518 83.010560
6366 21601 8054 1 109.50000 418.400000
6366 21601 8213 1 109.50000 418.400000
6366 21601 21600 1 103.70004 836.800000
8054 21601 8213 1 109.50000 418.400000
8054 21601 21600 1 103.70004 836.800000
8213 21601 21600 1 103.70004 836.800000
21600 21602 21603 1 119.8800511 375.723200
21600 21602 21604 1 120.0200517 532.790560
21603 21602 21604 1 119.8800511 375.723200
21602 21604 21605 1 119.8800511 375.723200
21602 21604 21606 1 120.0200517 532.790560
21605 21604 21606 1 119.8800511 375.723200
21604 21606 21607 1 119.8800511 375.723200
21604 21606 21608 1 120.0200517 532.790560
21607 21606 21608 1 119.8800511 375.723200
21599 21608 21606 1 120.0200517 532.790560
21599 21608 21609 1 119.8800511 375.723200
21606 21608 21609 1 119.8800511 375.723200
21610 21611 21612 1 119.8800511 375.723200
21610 21611 21620 1 119.8800511 375.723200
21612 21611 21620 1 120.0200517 532.790560
21611 21612 21613 1 121.3800518 83.010560
21611 21612 21614 1 120.0200517 532.790560
21613 21612 21614 1 121.3800518 83.010560
6404 21613 6405 1 109.50000 418.400000
6404 21613 6406 1 109.50000 418.400000
6404 21613 21612 1 103.70004 836.800000
6405 21613 6406 1 109.50000 418.400000
6405 21613 21612 1 103.70004 836.800000
6406 21613 21612 1 103.70004 836.800000
21612 21614 21615 1 119.8800511 375.723200
21612 21614 21616 1 120.0200517 532.790560
21615 21614 21616 1 119.8800511 375.723200
21614 21616 21617 1 119.8800511 375.723200
21614 21616 21618 1 120.0200517 532.790560
21617 21616 21618 1 119.8800511 375.723200
21616 21618 21619 1 119.8800511 375.723200
21616 21618 21620 1 120.0200517 532.790560
21619 21618 21620 1 119.8800511 375.723200
21611 21620 21618 1 120.0200517 532.790560
21611 21620 21621 1 119.8800511 375.723200
21618 21620 21621 1 119.8800511 375.723200
21622 21623 21624 1 119.8800511 375.723200
21622 21623 21632 1 119.8800511 375.723200
21624 21623 21632 1 120.0200517 532.790560
21623 21624 21625 1 121.3800518 83.010560
21623 21624 21626 1 120.0200517 532.790560
21625 21624 21626 1 121.3800518 83.010560
868 21625 3372 1 109.50000 418.400000
868 21625 7268 1 109.50000 418.400000
868 21625 21624 1 103.70004 836.800000
3372 21625 7268 1 109.50000 418.400000
3372 21625 21624 1 103.70004 836.800000
7268 21625 21624 1 103.70004 836.800000
21624 21626 21627 1 119.8800511 375.723200
21624 21626 21628 1 120.0200517 532.790560
21627 21626 21628 1 119.8800511 375.723200
21626 21628 21629 1 119.8800511 375.723200
21626 21628 21630 1 120.0200517 532.790560
21629 21628 21630 1 119.8800511 375.723200
21628 21630 21631 1 119.8800511 375.723200
21628 21630 21632 1 120.0200517 532.790560
21631 21630 21632 1 119.8800511 375.723200
21623 21632 21630 1 120.0200517 532.790560
21623 21632 21633 1 119.8800511 375.723200
21630 21632 21633 1 119.8800511 375.723200
21634 21635 21636 1 119.8800511 375.723200
21634 21635 21644 1 119.8800511 375.723200
21636 21635 21644 1 120.0200517 532.790560
21635 21636 21637 1 121.3800518 83.010560
21635 21636 21638 1 120.0200517 532.790560
21637 21636 21638 1 121.3800518 83.010560
5997 21637 10786 1 109.50000 418.400000
5997 21637 11209 1 109.50000 418.400000
5997 21637 21636 1 103.70004 836.800000
10786 21637 11209 1 109.50000 418.400000
10786 21637 21636 1 103.70004 836.800000
11209 21637 21636 1 103.70004 836.800000
21636 21638 21639 1 119.8800511 375.723200
21636 21638 21640 1 120.0200517 532.790560
21639 21638 21640 1 119.8800511 375.723200
21638 21640 21641 1 119.8800511 375.723200
21638 21640 21642 1 120.0200517 532.790560
21641 21640 21642 1 119.8800511 375.723200
21640 21642 21643 1 119.8800511 375.723200
21640 21642 21644 1 120.0200517 532.790560
21643 21642 21644 1 119.8800511 375.723200
21635 21644 21642 1 120.0200517 532.790560
21635 21644 21645 1 119.8800511 375.723200
21642 21644 21645 1 119.8800511 375.723200
21646 21647 21648 1 119.8800511 375.723200
21646 21647 21656 1 119.8800511 375.723200
21648 21647 21656 1 120.0200517 532.790560
21647 21648 21649 1 121.3800518 83.010560
21647 21648 21650 1 120.0200517 532.790560
21649 21648 21650 1 121.3800518 83.010560
2009 21649 10063 1 109.50000 418.400000
2009 21649 11231 1 109.50000 418.400000
2009 21649 21648 1 103.70004 836.800000
10063 21649 11231 1 109.50000 418.400000
10063 21649 21648 1 103.70004 836.800000
11231 21649 21648 1 103.70004 836.800000
21648 21650 21651 1 119.8800511 375.723200
21648 21650 21652 1 120.0200517 532.790560
21651 21650 21652 1 119.8800511 375.723200
21650 21652 21653 1 119.8800511 375.723200
21650 21652 21654 1 120.0200517 532.790560
21653 21652 21654 1 119.8800511 375.723200
21652 21654 21655 1 119.8800511 375.723200
21652 21654 21656 1 120.0200517 532.790560
21655 21654 21656 1 119.8800511 375.723200
21647 21656 21654 1 120.0200517 532.790560
21647 21656 21657 1 119.8800511 375.723200
21654 21656 21657 1 119.8800511 375.723200
21658 21659 21660 1 119.8800511 375.723200
21658 21659 21668 1 119.8800511 375.723200
21660 21659 21668 1 120.0200517 532.790560
21659 21660 21661 1 121.3800518 83.010560
21659 21660 21662 1 120.0200517 532.790560
21661 21660 21662 1 121.3800518 83.010560
3983 21661 5833 1 109.50000 418.400000
3983 21661 9005 1 109.50000 418.400000
3983 21661 21660 1 103.70004 836.800000
5833 21661 9005 1 109.50000 418.400000
5833 21661 21660 1 103.70004 836.800000
9005 21661 21660 1 103.70004 836.800000
21660 21662 21663 1 119.8800511 375.723200
21660 21662 21664 1 120.0200517 532.790560
21663 21662 21664 1 119.8800511 375.723200
21662 21664 21665 1 119.8800511 375.723200
21662 21664 21666 1 120.0200517 532.790560
21665 21664 21666 1 119.8800511 375.723200
21664 21666 21667 1 119.8800511 375.723200
21664 21666 21668 1 120.0200517 532.790560
21667 21666 21668 1 119.8800511 375.723200
21659 21668 21666 1 120.0200517 532.790560
21659 21668 21669 1 119.8800511 375.723200
21666 21668 21669 1 119.8800511 375.723200
21670 21671 21672 1 119.8800511 375.723200
21670 21671 21680 1 119.8800511 375.723200
21672 21671 21680 1 120.0200517 532.790560
21671 21672 21673 1 121.3800518 83.010560
21671 21672 21674 1 120.0200517 532.790560
21673 21672 21674 1 121.3800518 83.010560
10222 21673 11032 1 109.50000 418.400000
10222 21673 11183 1 109.50000 418.400000
10222 21673 21672 1 103.70004 836.800000
11032 21673 11183 1 109.50000 418.400000
11032 21673 21672 1 103.70004 836.800000
11183 21673 21672 1 103.70004 836.800000
21672 21674 21675 1 119.8800511 375.723200
21672 21674 21676 1 120.0200517 532.790560
21675 21674 21676 1 119.8800511 375.723200
21674 21676 21677 1 119.8800511 375.723200
21674 21676 21678 1 120.0200517 532.790560
21677 21676 21678 1 119.8800511 375.723200
21676 21678 21679 1 119.8800511 375.723200
21676 21678 21680 1 120.0200517 532.790560
21679 21678 21680 1 119.8800511 375.723200
21671 21680 21678 1 120.0200517 532.790560
21671 21680 21681 1 119.8800511 375.723200
21678 21680 21681 1 119.8800511 375.723200
21682 21683 21684 1 119.8800511 375.723200
21682 21683 21692 1 119.8800511 375.723200
21684 21683 21692 1 120.0200517 532.790560
21683 21684 21685 1 121.3800518 83.010560
21683 21684 21686 1 120.0200517 532.790560
21685 21684 21686 1 121.3800518 83.010560
6415 21685 7232 1 109.50000 418.400000
6415 21685 8657 1 109.50000 418.400000
6415 21685 21684 1 103.70004 836.800000
7232 21685 8657 1 109.50000 418.400000
7232 21685 21684 1 103.70004 836.800000
8657 21685 21684 1 103.70004 836.800000
21684 21686 21687 1 119.8800511 375.723200
21684 21686 21688 1 120.0200517 532.790560
21687 21686 21688 1 119.8800511 375.723200
21686 21688 21689 1 119.8800511 375.723200
21686 21688 21690 1 120.0200517 532.790560
21689 21688 21690 1 119.8800511 375.723200
21688 21690 21691 1 119.8800511 375.723200
21688 21690 21692 1 120.0200517 532.790560
21691 21690 21692 1 119.8800511 375.723200
21683 21692 21690 1 120.0200517 532.790560
21683 21692 21693 1 119.8800511 375.723200
21690 21692 21693 1 119.8800511 375.723200
21694 21695 21696 1 119.8800511 375.723200
21694 21695 21704 1 119.8800511 375.723200
21696 21695 21704 1 120.0200517 532.790560
21695 21696 21697 1 121.3800518 83.010560
21695 21696 21698 1 120.0200517 532.790560
21697 21696 21698 1 121.3800518 83.010560
8865 21697 9164 1 109.50000 418.400000
8865 21697 11247 1 109.50000 418.400000
8865 21697 21696 1 103.70004 836.800000
9164 21697 11247 1 109.50000 418.400000
9164 21697 21696 1 103.70004 836.800000
11247 21697 21696 1 103.70004 836.800000
21696 21698 21699 1 119.8800511 375.723200
21696 21698 21700 1 120.0200517 532.790560
21699 21698 21700 1 119.8800511 375.723200
21698 21700 21701 1 119.8800511 375.723200
21698 21700 21702 1 120.0200517 532.790560
21701 21700 21702 1 119.8800511 375.723200
21700 21702 21703 1 119.8800511 375.723200
21700 21702 21704 1 120.0200517 532.790560
21703 21702 21704 1 119.8800511 375.723200
21695 21704 21702 1 120.0200517 532.790560
21695 21704 21705 1 119.8800511 375.723200
21702 21704 21705 1 119.8800511 375.723200
21706 21707 21708 1 119.8800511 375.723200
21706 21707 21716 1 119.8800511 375.723200
21708 21707 21716 1 120.0200517 532.790560
21707 21708 21709 1 121.3800518 83.010560
21707 21708 21710 1 120.0200517 532.790560
21709 21708 21710 1 121.3800518 83.010560
864 21709 2451 1 109.50000 418.400000
864 21709 5839 1 109.50000 418.400000
864 21709 21708 1 103.70004 836.800000
2451 21709 5839 1 109.50000 418.400000
2451 21709 21708 1 103.70004 836.800000
5839 21709 21708 1 103.70004 836.800000
21708 21710 21711 1 119.8800511 375.723200
21708 21710 21712 1 120.0200517 532.790560
21711 21710 21712 1 119.8800511 375.723200
21710 21712 21713 1 119.8800511 375.723200
21710 21712 21714 1 120.0200517 532.790560
21713 21712 21714 1 119.8800511 375.723200
21712 21714 21715 1 119.8800511 375.723200
21712 21714 21716 1 120.0200517 532.790560
21715 21714 21716 1 119.8800511 375.723200
21707 21716 21714 1 120.0200517 532.790560
21707 21716 21717 1 119.8800511 375.723200
21714 21716 21717 1 119.8800511 375.723200
21718 21719 21720 1 119.8800511 375.723200
21718 21719 21728 1 119.8800511 375.723200
21720 21719 21728 1 120.0200517 532.790560
21719 21720 21721 1 121.3800518 83.010560
21719 21720 21722 1 120.0200517 532.790560
21721 21720 21722 1 121.3800518 83.010560
232 21721 6232 1 109.50000 418.400000
232 21721 9388 1 109.50000 418.400000
232 21721 21720 1 103.70004 836.800000
6232 21721 9388 1 109.50000 418.400000
6232 21721 21720 1 103.70004 836.800000
9388 21721 21720 1 103.70004 836.800000
21720 21722 21723 1 119.8800511 375.723200
21720 21722 21724 1 120.0200517 532.790560
21723 21722 21724 1 119.8800511 375.723200
21722 21724 21725 1 119.8800511 375.723200
21722 21724 21726 1 120.0200517 532.790560
21725 21724 21726 1 119.8800511 375.723200
21724 21726 21727 1 119.8800511 375.723200
21724 21726 21728 1 120.0200517 532.790560
21727 21726 21728 1 119.8800511 375.723200
21719 21728 21726 1 120.0200517 532.790560
21719 21728 21729 1 119.8800511 375.723200
21726 21728 21729 1 119.8800511 375.723200
21730 21731 21732 1 119.8800511 375.723200
21730 21731 21740 1 119.8800511 375.723200
21732 21731 21740 1 120.0200517 532.790560
21731 21732 21733 1 121.3800518 83.010560
21731 21732 21734 1 120.0200517 532.790560
21733 21732 21734 1 121.3800518 83.010560
1291 21733 1684 1 109.50000 418.400000
1291 21733 7198 1 109.50000 418.400000
1291 21733 21732 1 103.70004 836.800000
1684 21733 7198 1 109.50000 418.400000
1684 21733 21732 1 103.70004 836.800000
7198 21733 21732 1 103.70004 836.800000
21732 21734 21735 1 119.8800511 375.723200
21732 21734 21736 1 120.0200517 532.790560
21735 21734 21736 1 119.8800511 375.723200
21734 21736 21737 1 119.8800511 375.723200
21734 21736 21738 1 120.0200517 532.790560
21737 21736 21738 1 119.8800511 375.723200
21736 21738 21739 1 119.8800511 375.723200
21736 21738 21740 1 120.0200517 532.790560
21739 21738 21740 1 119.8800511 375.723200
21731 21740 21738 1 120.0200517 532.790560
21731 21740 21741 1 119.8800511 375.723200
21738 21740 21741 1 119.8800511 375.723200
21742 21743 21744 1 119.8800511 375.723200
21742 21743 21752 1 119.8800511 375.723200
21744 21743 21752 1 120.0200517 532.790560
21743 21744 21745 1 121.3800518 83.010560
21743 21744 21746 1 120.0200517 532.790560
21745 21744 21746 1 121.3800518 83.010560
1689 21745 1690 1 109.50000 418.400000
1689 21745 1691 1 109.50000 418.400000
1689 21745 21744 1 103.70004 836.800000
1690 21745 1691 1 109.50000 418.400000
1690 21745 21744 1 103.70004 836.800000
1691 21745 21744 1 103.70004 836.800000
21744 21746 21747 1 119.8800511 375.723200
21744 21746 21748 1 120.0200517 532.790560
21747 21746 21748 1 119.8800511 375.723200
21746 21748 21749 1 119.8800511 375.723200
21746 21748 21750 1 120.0200517 532.790560
21749 21748 21750 1 119.8800511 375.723200
21748 21750 21751 1 119.8800511 375.723200
21748 21750 21752 1 120.0200517 532.790560
21751 21750 21752 1 119.8800511 375.723200
21743 21752 21750 1 120.0200517 532.790560
21743 21752 21753 1 119.8800511 375.723200
21750 21752 21753 1 119.8800511 375.723200
21754 21755 21756 1 119.8800511 375.723200
21754 21755 21764 1 119.8800511 375.723200
21756 21755 21764 1 120.0200517 532.790560
21755 21756 21757 1 121.3800518 83.010560
21755 21756 21758 1 120.0200517 532.790560
21757 21756 21758 1 121.3800518 83.010560
9803 21757 10149 1 109.50000 418.400000
9803 21757 10492 1 109.50000 418.400000
9803 21757 21756 1 103.70004 836.800000
10149 21757 10492 1 109.50000 418.400000
10149 21757 21756 1 103.70004 836.800000
10492 21757 21756 1 103.70004 836.800000
21756 21758 21759 1 119.8800511 375.723200
21756 21758 21760 1 120.0200517 532.790560
21759 21758 21760 1 119.8800511 375.723200
21758 21760 21761 1 119.8800511 375.723200
21758 21760 21762 1 120.0200517 532.790560
21761 21760 21762 1 119.8800511 375.723200
21760 21762 21763 1 119.8800511 375.723200
21760 21762 21764 1 120.0200517 532.790560
21763 21762 21764 1 119.8800511 375.723200
21755 21764 21762 1 120.0200517 532.790560
21755 21764 21765 1 119.8800511 375.723200
21762 21764 21765 1 119.8800511 375.723200
21766 21767 21768 1 119.8800511 375.723200
21766 21767 21776 1 119.8800511 375.723200
21768 21767 21776 1 120.0200517 532.790560
21767 21768 21769 1 121.3800518 83.010560
21767 21768 21770 1 120.0200517 532.790560
21769 21768 21770 1 121.3800518 83.010560
4515 21769 8601 1 109.50000 418.400000
4515 21769 9276 1 109.50000 418.400000
4515 21769 21768 1 103.70004 836.800000
8601 21769 9276 1 109.50000 418.400000
8601 21769 21768 1 103.70004 836.800000
9276 21769 21768 1 103.70004 836.800000
21768 21770 21771 1 119.8800511 375.723200
21768 21770 21772 1 120.0200517 532.790560
21771 21770 21772 1 119.8800511 375.723200
21770 21772 21773 1 119.8800511 375.723200
21770 21772 21774 1 120.0200517 532.790560
21773 21772 21774 1 119.8800511 375.723200
21772 21774 21775 1 119.8800511 375.723200
21772 21774 21776 1 120.0200517 532.790560
21775 21774 21776 1 119.8800511 375.723200
21767 21776 21774 1 120.0200517 532.790560
21767 21776 21777 1 119.8800511 375.723200
21774 21776 21777 1 119.8800511 375.723200
21778 21779 21780 1 119.8800511 375.723200
21778 21779 21788 1 119.8800511 375.723200
21780 21779 21788 1 120.0200517 532.790560
21779 21780 21781 1 121.3800518 83.010560
21779 21780 21782 1 120.0200517 532.790560
21781 21780 21782 1 121.3800518 83.010560
6560 21781 6600 1 109.50000 418.400000
6560 21781 6601 1 109.50000 418.400000
6560 21781 21780 1 103.70004 836.800000
6600 21781 6601 1 109.50000 418.400000
6600 21781 21780 1 103.70004 836.800000
6601 21781 21780 1 103.70004 836.800000
21780 21782 21783 1 119.8800511 375.723200
21780 21782 21784 1 120.0200517 532.790560
21783 21782 21784 1 119.8800511 375.723200
21782 21784 21785 1 119.8800511 375.723200
21782 21784 21786 1 120.0200517 532.790560
21785 21784 21786 1 119.8800511 375.723200
21784 21786 21787 1 119.8800511 375.723200
21784 21786 21788 1 120.0200517 532.790560
21787 21786 21788 1 119.8800511 375.723200
21779 21788 21786 1 120.0200517 532.790560
21779 21788 21789 1 119.8800511 375.723200
21786 21788 21789 1 119.8800511 375.723200
21790 21791 21792 1 119.8800511 375.723200
21790 21791 21800 1 119.8800511 375.723200
21792 21791 21800 1 120.0200517 532.790560
21791 21792 21793 1 121.3800518 83.010560
21791 21792 21794 1 120.0200517 532.790560
21793 21792 21794 1 121.3800518 83.010560
3751 21793 5188 1 109.50000 418.400000
3751 21793 5189 1 109.50000 418.400000
3751 21793 21792 1 103.70004 836.800000
5188 21793 5189 1 109.50000 418.400000
5188 21793 21792 1 103.70004 836.800000
5189 21793 21792 1 103.70004 836.800000
21792 21794 21795 1 119.8800511 375.723200
21792 21794 21796 1 120.0200517 532.790560
21795 21794 21796 1 119.8800511 375.723200
21794 21796 21797 1 119.8800511 375.723200
21794 21796 21798 1 120.0200517 532.790560
21797 21796 21798 1 119.8800511 375.723200
21796 21798 21799 1 119.8800511 375.723200
21796 21798 21800 1 120.0200517 532.790560
21799 21798 21800 1 119.8800511 375.723200
21791 21800 21798 1 120.0200517 532.790560
21791 21800 21801 1 119.8800511 375.723200
21798 21800 21801 1 119.8800511 375.723200
21802 21803 21804 1 119.8800511 375.723200
21802 21803 21812 1 119.8800511 375.723200
21804 21803 21812 1 120.0200517 532.790560
21803 21804 21805 1 121.3800518 83.010560
21803 21804 21806 1 120.0200517 532.790560
21805 21804 21806 1 121.3800518 83.010560
6350 21805 6380 1 109.50000 418.400000
6350 21805 9254 1 109.50000 418.400000
6350 21805 21804 1 103.70004 836.800000
6380 21805 9254 1 109.50000 418.400000
6380 21805 21804 1 103.70004 836.800000
9254 21805 21804 1 103.70004 836.800000
21804 21806 21807 1 119.8800511 375.723200
21804 21806 21808 1 120.0200517 532.790560
21807 21806 21808 1 119.8800511 375.723200
21806 21808 21809 1 119.8800511 375.723200
21806 21808 21810 1 120.0200517 532.790560
21809 21808 21810 1 119.8800511 375.723200
21808 21810 21811 1 119.8800511 375.723200
21808 21810 21812 1 120.0200517 532.790560
21811 21810 21812 1 119.8800511 375.723200
21803 21812 21810 1 120.0200517 532.790560
21803 21812 21813 1 119.8800511 375.723200
21810 21812 21813 1 119.8800511 375.723200
21814 21815 21816 1 119.8800511 375.723200
21814 21815 21824 1 119.8800511 375.723200
21816 21815 21824 1 120.0200517 532.790560
21815 21816 21817 1 121.3800518 83.010560
21815 21816 21818 1 120.0200517 532.790560
21817 21816 21818 1 121.3800518 83.010560
6099 21817 6100 1 109.50000 418.400000
6099 21817 6101 1 109.50000 418.400000
6099 21817 21816 1 103.70004 836.800000
6100 21817 6101 1 109.50000 418.400000
6100 21817 21816 1 103.70004 836.800000
6101 21817 21816 1 103.70004 836.800000
21816 21818 21819 1 119.8800511 375.723200
21816 21818 21820 1 120.0200517 532.790560
21819 21818 21820 1 119.8800511 375.723200
21818 21820 21821 1 119.8800511 375.723200
21818 21820 21822 1 120.0200517 532.790560
21821 21820 21822 1 119.8800511 375.723200
21820 21822 21823 1 119.8800511 375.723200
21820 21822 21824 1 120.0200517 532.790560
21823 21822 21824 1 119.8800511 375.723200
21815 21824 21822 1 120.0200517 532.790560
21815 21824 21825 1 119.8800511 375.723200
21822 21824 21825 1 119.8800511 375.723200
21826 21827 21828 1 119.8800511 375.723200
21826 21827 21836 1 119.8800511 375.723200
21828 21827 21836 1 120.0200517 532.790560
21827 21828 21829 1 121.3800518 83.010560
21827 21828 21830 1 120.0200517 532.790560
21829 21828 21830 1 121.3800518 83.010560
1110 21829 1111 1 109.50000 418.400000
1110 21829 1112 1 109.50000 418.400000
1110 21829 21828 1 103.70004 836.800000
1111 21829 1112 1 109.50000 418.400000
1111 21829 21828 1 103.70004 836.800000
1112 21829 21828 1 103.70004 836.800000
21828 21830 21831 1 119.8800511 375.723200
21828 21830 21832 1 120.0200517 532.790560
21831 21830 21832 1 119.8800511 375.723200
21830 21832 21833 1 119.8800511 375.723200
21830 21832 21834 1 120.0200517 532.790560
21833 21832 21834 1 119.8800511 375.723200
21832 21834 21835 1 119.8800511 375.723200
21832 21834 21836 1 120.0200517 532.790560
21835 21834 21836 1 119.8800511 375.723200
21827 21836 21834 1 120.0200517 532.790560
21827 21836 21837 1 119.8800511 375.723200
21834 21836 21837 1 119.8800511 375.723200
21838 21839 21840 1 119.8800511 375.723200
21838 21839 21848 1 119.8800511 375.723200
21840 21839 21848 1 120.0200517 532.790560
21839 21840 21841 1 121.3800518 83.010560
21839 21840 21842 1 120.0200517 532.790560
21841 21840 21842 1 121.3800518 83.010560
4454 21841 4961 1 109.50000 418.400000
4454 21841 11240 1 109.50000 418.400000
4454 21841 21840 1 103.70004 836.800000
4961 21841 11240 1 109.50000 418.400000
4961 21841 21840 1 103.70004 836.800000
11240 21841 21840 1 103.70004 836.800000
21840 21842 21843 1 119.8800511 375.723200
21840 21842 21844 1 120.0200517 532.790560
21843 21842 21844 1 119.8800511 375.723200
21842 21844 21845 1 119.8800511 375.723200
21842 21844 21846 1 120.0200517 532.790560
21845 21844 21846 1 119.8800511 375.723200
21844 21846 21847 1 119.8800511 375.723200
21844 21846 21848 1 120.0200517 532.790560
21847 21846 21848 1 119.8800511 375.723200
21839 21848 21846 1 120.0200517 532.790560
21839 21848 21849 1 119.8800511 375.723200
21846 21848 21849 1 119.8800511 375.723200
21850 21851 21852 1 119.8800511 375.723200
21850 21851 21860 1 119.8800511 375.723200
21852 21851 21860 1 120.0200517 532.790560
21851 21852 21853 1 121.3800518 83.010560
21851 21852 21854 1 120.0200517 532.790560
21853 21852 21854 1 121.3800518 83.010560
793 21853 10034 1 109.50000 418.400000
793 21853 10463 1 109.50000 418.400000
793 21853 21852 1 103.70004 836.800000
10034 21853 10463 1 109.50000 418.400000
10034 21853 21852 1 103.70004 836.800000
10463 21853 21852 1 103.70004 836.800000
21852 21854 21855 1 119.8800511 375.723200
21852 21854 21856 1 120.0200517 532.790560
21855 21854 21856 1 119.8800511 375.723200
21854 21856 21857 1 119.8800511 375.723200
21854 21856 21858 1 120.0200517 532.790560
21857 21856 21858 1 119.8800511 375.723200
21856 21858 21859 1 119.8800511 375.723200
21856 21858 21860 1 120.0200517 532.790560
21859 21858 21860 1 119.8800511 375.723200
21851 21860 21858 1 120.0200517 532.790560
21851 21860 21861 1 119.8800511 375.723200
21858 21860 21861 1 119.8800511 375.723200
21862 21863 21864 1 119.8800511 375.723200
21862 21863 21872 1 119.8800511 375.723200
21864 21863 21872 1 120.0200517 532.790560
21863 21864 21865 1 121.3800518 83.010560
21863 21864 21866 1 120.0200517 532.790560
21865 21864 21866 1 121.3800518 83.010560
1406 21865 1407 1 109.50000 418.400000
1406 21865 1408 1 109.50000 418.400000
1406 21865 21864 1 103.70004 836.800000
1407 21865 1408 1 109.50000 418.400000
1407 21865 21864 1 103.70004 836.800000
1408 21865 21864 1 103.70004 836.800000
21864 21866 21867 1 119.8800511 375.723200
21864 21866 21868 1 120.0200517 532.790560
21867 21866 21868 1 119.8800511 375.723200
21866 21868 21869 1 119.8800511 375.723200
21866 21868 21870 1 120.0200517 532.790560
21869 21868 21870 1 119.8800511 375.723200
21868 21870 21871 1 119.8800511 375.723200
21868 21870 21872 1 120.0200517 532.790560
21871 21870 21872 1 119.8800511 375.723200
21863 21872 21870 1 120.0200517 532.790560
21863 21872 21873 1 119.8800511 375.723200
21870 21872 21873 1 119.8800511 375.723200
21874 21875 21876 1 119.8800511 375.723200
21874 21875 21884 1 119.8800511 375.723200
21876 21875 21884 1 120.0200517 532.790560
21875 21876 21877 1 121.3800518 83.010560
21875 21876 21878 1 120.0200517 532.790560
21877 21876 21878 1 121.3800518 83.010560
8828 21877 9858 1 109.50000 418.400000
8828 21877 9927 1 109.50000 418.400000
8828 21877 21876 1 103.70004 836.800000
9858 21877 9927 1 109.50000 418.400000
9858 21877 21876 1 103.70004 836.800000
9927 21877 21876 1 103.70004 836.800000
21876 21878 21879 1 119.8800511 375.723200
21876 21878 21880 1 120.0200517 532.790560
21879 21878 21880 1 119.8800511 375.723200
21878 21880 21881 1 119.8800511 375.723200
21878 21880 21882 1 120.0200517 532.790560
21881 21880 21882 1 119.8800511 375.723200
21880 21882 21883 1 119.8800511 375.723200
21880 21882 21884 1 120.0200517 532.790560
21883 21882 21884 1 119.8800511 375.723200
21875 21884 21882 1 120.0200517 532.790560
21875 21884 21885 1 119.8800511 375.723200
21882 21884 21885 1 119.8800511 375.723200
21886 21887 21888 1 119.8800511 375.723200
21886 21887 21896 1 119.8800511 375.723200
21888 21887 21896 1 120.0200517 532.790560
21887 21888 21889 1 121.3800518 83.010560
21887 21888 21890 1 120.0200517 532.790560
21889 21888 21890 1 121.3800518 83.010560
30 21889 31 1 109.50000 418.400000
30 21889 32 1 109.50000 418.400000
30 21889 21888 1 103.70004 836.800000
31 21889 32 1 109.50000 418.400000
31 21889 21888 1 103.70004 836.800000
32 21889 21888 1 103.70004 836.800000
21888 21890 21891 1 119.8800511 375.723200
21888 21890 21892 1 120.0200517 532.790560
21891 21890 21892 1 119.8800511 375.723200
21890 21892 21893 1 119.8800511 375.723200
21890 21892 21894 1 120.0200517 532.790560
21893 21892 21894 1 119.8800511 375.723200
21892 21894 21895 1 119.8800511 375.723200
21892 21894 21896 1 120.0200517 532.790560
21895 21894 21896 1 119.8800511 375.723200
21887 21896 21894 1 120.0200517 532.790560
21887 21896 21897 1 119.8800511 375.723200
21894 21896 21897 1 119.8800511 375.723200
21898 21899 21900 1 119.8800511 375.723200
21898 21899 21908 1 119.8800511 375.723200
21900 21899 21908 1 120.0200517 532.790560
21899 21900 21901 1 121.3800518 83.010560
21899 21900 21902 1 120.0200517 532.790560
21901 21900 21902 1 121.3800518 83.010560
6538 21901 10087 1 109.50000 418.400000
6538 21901 10670 1 109.50000 418.400000
6538 21901 21900 1 103.70004 836.800000
10087 21901 10670 1 109.50000 418.400000
10087 21901 21900 1 103.70004 836.800000
10670 21901 21900 1 103.70004 836.800000
21900 21902 21903 1 119.8800511 375.723200
21900 21902 21904 1 120.0200517 532.790560
21903 21902 21904 1 119.8800511 375.723200
21902 21904 21905 1 119.8800511 375.723200
21902 21904 21906 1 120.0200517 532.790560
21905 21904 21906 1 119.8800511 375.723200
21904 21906 21907 1 119.8800511 375.723200
21904 21906 21908 1 120.0200517 532.790560
21907 21906 21908 1 119.8800511 375.723200
21899 21908 21906 1 120.0200517 532.790560
21899 21908 21909 1 119.8800511 375.723200
21906 21908 21909 1 119.8800511 375.723200
21910 21911 21912 1 119.8800511 375.723200
21910 21911 21920 1 119.8800511 375.723200
21912 21911 21920 1 120.0200517 532.790560
21911 21912 21913 1 121.3800518 83.010560
21911 21912 21914 1 120.0200517 532.790560
21913 21912 21914 1 121.3800518 83.010560
1216 21913 2857 1 109.50000 418.400000
1216 21913 11187 1 109.50000 418.400000
1216 21913 21912 1 103.70004 836.800000
2857 21913 11187 1 109.50000 418.400000
2857 21913 21912 1 103.70004 836.800000
11187 21913 21912 1 103.70004 836.800000
21912 21914 21915 1 119.8800511 375.723200
21912 21914 21916 1 120.0200517 532.790560
21915 21914 21916 1 119.8800511 375.723200
21914 21916 21917 1 119.8800511 375.723200
21914 21916 21918 1 120.0200517 532.790560
21917 21916 21918 1 119.8800511 375.723200
21916 21918 21919 1 119.8800511 375.723200
21916 21918 21920 1 120.0200517 532.790560
21919 21918 21920 1 119.8800511 375.723200
21911 21920 21918 1 120.0200517 532.790560
21911 21920 21921 1 119.8800511 375.723200
21918 21920 21921 1 119.8800511 375.723200
21922 21923 21924 1 119.8800511 375.723200
21922 21923 21932 1 119.8800511 375.723200
21924 21923 21932 1 120.0200517 532.790560
21923 21924 21925 1 121.3800518 83.010560
21923 21924 21926 1 120.0200517 532.790560
21925 21924 21926 1 121.3800518 83.010560
1020 21925 2731 1 109.50000 418.400000
1020 21925 6467 1 109.50000 418.400000
1020 21925 21924 1 103.70004 836.800000
2731 21925 6467 1 109.50000 418.400000
2731 21925 21924 1 103.70004 836.800000
6467 21925 21924 1 103.70004 836.800000
21924 21926 21927 1 119.8800511 375.723200
21924 21926 21928 1 120.0200517 532.790560
21927 21926 21928 1 119.8800511 375.723200
21926 21928 21929 1 119.8800511 375.723200
21926 21928 21930 1 120.0200517 532.790560
21929 21928 21930 1 119.8800511 375.723200
21928 21930 21931 1 119.8800511 375.723200
21928 21930 21932 1 120.0200517 532.790560
21931 21930 21932 1 119.8800511 375.723200
21923 21932 21930 1 120.0200517 532.790560
21923 21932 21933 1 119.8800511 375.723200
21930 21932 21933 1 119.8800511 375.723200
21934 21935 21936 1 119.8800511 375.723200
21934 21935 21944 1 119.8800511 375.723200
21936 21935 21944 1 120.0200517 532.790560
21935 21936 21937 1 121.3800518 83.010560
21935 21936 21938 1 120.0200517 532.790560
21937 21936 21938 1 121.3800518 83.010560
3601 21937 6014 1 109.50000 418.400000
3601 21937 9808 1 109.50000 418.400000
3601 21937 21936 1 103.70004 836.800000
6014 21937 9808 1 109.50000 418.400000
6014 21937 21936 1 103.70004 836.800000
9808 21937 21936 1 103.70004 836.800000
21936 21938 21939 1 119.8800511 375.723200
21936 21938 21940 1 120.0200517 532.790560
21939 21938 21940 1 119.8800511 375.723200
21938 21940 21941 1 119.8800511 375.723200
21938 21940 21942 1 120.0200517 532.790560
21941 21940 21942 1 119.8800511 375.723200
21940 21942 21943 1 119.8800511 375.723200
21940 21942 21944 1 120.0200517 532.790560
21943 21942 21944 1 119.8800511 375.723200
21935 21944 21942 1 120.0200517 532.790560
21935 21944 21945 1 119.8800511 375.723200
21942 21944 21945 1 119.8800511 375.723200
21946 21947 21948 1 119.8800511 375.723200
21946 21947 21956 1 119.8800511 375.723200
21948 21947 21956 1 120.0200517 532.790560
21947 21948 21949 1 121.3800518 83.010560
21947 21948 21950 1 120.0200517 532.790560
21949 21948 21950 1 121.3800518 83.010560
6149 21949 10678 1 109.50000 418.400000
6149 21949 10679 1 109.50000 418.400000
6149 21949 21948 1 103.70004 836.800000
10678 21949 10679 1 109.50000 418.400000
10678 21949 21948 1 103.70004 836.800000
10679 21949 21948 1 103.70004 836.800000
21948 21950 21951 1 119.8800511 375.723200
21948 21950 21952 1 120.0200517 532.790560
21951 21950 21952 1 119.8800511 375.723200
21950 21952 21953 1 119.8800511 375.723200
21950 21952 21954 1 120.0200517 532.790560
21953 21952 21954 1 119.8800511 375.723200
21952 21954 21955 1 119.8800511 375.723200
21952 21954 21956 1 120.0200517 532.790560
21955 21954 21956 1 119.8800511 375.723200
21947 21956 21954 1 120.0200517 532.790560
21947 21956 21957 1 119.8800511 375.723200
21954 21956 21957 1 119.8800511 375.723200
21958 21959 21960 1 119.8800511 375.723200
21958 21959 21968 1 119.8800511 375.723200
21960 21959 21968 1 120.0200517 532.790560
21959 21960 21961 1 121.3800518 83.010560
21959 21960 21962 1 120.0200517 532.790560
21961 21960 21962 1 121.3800518 83.010560
3105 21961 10560 1 109.50000 418.400000
3105 21961 10561 1 109.50000 418.400000
3105 21961 21960 1 103.70004 836.800000
10560 21961 10561 1 109.50000 418.400000
10560 21961 21960 1 103.70004 836.800000
10561 21961 21960 1 103.70004 836.800000
21960 21962 21963 1 119.8800511 375.723200
21960 21962 21964 1 120.0200517 532.790560
21963 21962 21964 1 119.8800511 375.723200
21962 21964 21965 1 119.8800511 375.723200
21962 21964 21966 1 120.0200517 532.790560
21965 21964 21966 1 119.8800511 375.723200
21964 21966 21967 1 119.8800511 375.723200
21964 21966 21968 1 120.0200517 532.790560
21967 21966 21968 1 119.8800511 375.723200
21959 21968 21966 1 120.0200517 532.790560
21959 21968 21969 1 119.8800511 375.723200
21966 21968 21969 1 119.8800511 375.723200
21970 21971 21972 1 119.8800511 375.723200
21970 21971 21980 1 119.8800511 375.723200
21972 21971 21980 1 120.0200517 532.790560
21971 21972 21973 1 121.3800518 83.010560
21971 21972 21974 1 120.0200517 532.790560
21973 21972 21974 1 121.3800518 83.010560
481 21973 482 1 109.50000 418.400000
481 21973 5325 1 109.50000 418.400000
481 21973 21972 1 103.70004 836.800000
482 21973 5325 1 109.50000 418.400000
482 21973 21972 1 103.70004 836.800000
5325 21973 21972 1 103.70004 836.800000
21972 21974 21975 1 119.8800511 375.723200
21972 21974 21976 1 120.0200517 532.790560
21975 21974 21976 1 119.8800511 375.723200
21974 21976 21977 1 119.8800511 375.723200
21974 21976 21978 1 120.0200517 532.790560
21977 21976 21978 1 119.8800511 375.723200
21976 21978 21979 1 119.8800511 375.723200
21976 21978 21980 1 120.0200517 532.790560
21979 21978 21980 1 119.8800511 375.723200
21971 21980 21978 1 120.0200517 532.790560
21971 21980 21981 1 119.8800511 375.723200
21978 21980 21981 1 119.8800511 375.723200
21982 21983 21984 1 119.8800511 375.723200
21982 21983 21992 1 119.8800511 375.723200
21984 21983 21992 1 120.0200517 532.790560
21983 21984 21985 1 121.3800518 83.010560
21983 21984 21986 1 120.0200517 532.790560
21985 21984 21986 1 121.3800518 83.010560
4437 21985 4853 1 109.50000 418.400000
4437 21985 7741 1 109.50000 418.400000
4437 21985 21984 1 103.70004 836.800000
4853 21985 7741 1 109.50000 418.400000
4853 21985 21984 1 103.70004 836.800000
7741 21985 21984 1 103.70004 836.800000
21984 21986 21987 1 119.8800511 375.723200
21984 21986 21988 1 120.0200517 532.790560
21987 21986 21988 1 119.8800511 375.723200
21986 21988 21989 1 119.8800511 375.723200
21986 21988 21990 1 120.0200517 532.790560
21989 21988 21990 1 119.8800511 375.723200
21988 21990 21991 1 119.8800511 375.723200
21988 21990 21992 1 120.0200517 532.790560
21991 21990 21992 1 119.8800511 375.723200
21983 21992 21990 1 120.0200517 532.790560
21983 21992 21993 1 119.8800511 375.723200
21990 21992 21993 1 119.8800511 375.723200
21994 21995 21996 1 119.8800511 375.723200
21994 21995 22004 1 119.8800511 375.723200
21996 21995 22004 1 120.0200517 532.790560
21995 21996 21997 1 121.3800518 83.010560
21995 21996 21998 1 120.0200517 532.790560
21997 21996 21998 1 121.3800518 83.010560
7843 21997 7844 1 109.50000 418.400000
7843 21997 7845 1 109.50000 418.400000
7843 21997 21996 1 103.70004 836.800000
7844 21997 7845 1 109.50000 418.400000
7844 21997 21996 1 103.70004 836.800000
7845 21997 21996 1 103.70004 836.800000
21996 21998 21999 1 119.8800511 375.723200
21996 21998 22000 1 120.0200517 532.790560
21999 21998 22000 1 119.8800511 375.723200
21998 22000 22001 1 119.8800511 375.723200
21998 22000 22002 1 120.0200517 532.790560
22001 22000 22002 1 119.8800511 375.723200
22000 22002 22003 1 119.8800511 375.723200
22000 22002 22004 1 120.0200517 532.790560
22003 22002 22004 1 119.8800511 375.723200
21995 22004 22002 1 120.0200517 532.790560
21995 22004 22005 1 119.8800511 375.723200
22002 22004 22005 1 119.8800511 375.723200
22006 22007 22008 1 119.8800511 375.723200
22006 22007 22016 1 119.8800511 375.723200
22008 22007 22016 1 120.0200517 532.790560
22007 22008 22009 1 121.3800518 83.010560
22007 22008 22010 1 120.0200517 532.790560
22009 22008 22010 1 121.3800518 83.010560
4790 22009 4791 1 109.50000 418.400000
4790 22009 4792 1 109.50000 418.400000
4790 22009 22008 1 103.70004 836.800000
4791 22009 4792 1 109.50000 418.400000
4791 22009 22008 1 103.70004 836.800000
4792 22009 22008 1 103.70004 836.800000
22008 22010 22011 1 119.8800511 375.723200
22008 22010 22012 1 120.0200517 532.790560
22011 22010 22012 1 119.8800511 375.723200
22010 22012 22013 1 119.8800511 375.723200
22010 22012 22014 1 120.0200517 532.790560
22013 22012 22014 1 119.8800511 375.723200
22012 22014 22015 1 119.8800511 375.723200
22012 22014 22016 1 120.0200517 532.790560
22015 22014 22016 1 119.8800511 375.723200
22007 22016 22014 1 120.0200517 532.790560
22007 22016 22017 1 119.8800511 375.723200
22014 22016 22017 1 119.8800511 375.723200
22018 22019 22020 1 119.8800511 375.723200
22018 22019 22028 1 119.8800511 375.723200
22020 22019 22028 1 120.0200517 532.790560
22019 22020 22021 1 121.3800518 83.010560
22019 22020 22022 1 120.0200517 532.790560
22021 22020 22022 1 121.3800518 83.010560
356 22021 5260 1 109.50000 418.400000
356 22021 5261 1 109.50000 418.400000
356 22021 22020 1 103.70004 836.800000
5260 22021 5261 1 109.50000 418.400000
5260 22021 22020 1 103.70004 836.800000
5261 22021 22020 1 103.70004 836.800000
22020 22022 22023 1 119.8800511 375.723200
22020 22022 22024 1 120.0200517 532.790560
22023 22022 22024 1 119.8800511 375.723200
22022 22024 22025 1 119.8800511 375.723200
22022 22024 22026 1 120.0200517 532.790560
22025 22024 22026 1 119.8800511 375.723200
22024 22026 22027 1 119.8800511 375.723200
22024 22026 22028 1 120.0200517 532.790560
22027 22026 22028 1 119.8800511 375.723200
22019 22028 22026 1 120.0200517 532.790560
22019 22028 22029 1 119.8800511 375.723200
22026 22028 22029 1 119.8800511 375.723200
22030 22031 22032 1 119.8800511 375.723200
22030 22031 22040 1 119.8800511 375.723200
22032 22031 22040 1 120.0200517 532.790560
22031 22032 22033 1 121.3800518 83.010560
22031 22032 22034 1 120.0200517 532.790560
22033 22032 22034 1 121.3800518 83.010560
1866 22033 1867 1 109.50000 418.400000
1866 22033 11204 1 109.50000 418.400000
1866 22033 22032 1 103.70004 836.800000
1867 22033 11204 1 109.50000 418.400000
1867 22033 22032 1 103.70004 836.800000
11204 22033 22032 1 103.70004 836.800000
22032 22034 22035 1 119.8800511 375.723200
22032 22034 22036 1 120.0200517 532.790560
22035 22034 22036 1 119.8800511 375.723200
22034 22036 22037 1 119.8800511 375.723200
22034 22036 22038 1 120.0200517 532.790560
22037 22036 22038 1 119.8800511 375.723200
22036 22038 22039 1 119.8800511 375.723200
22036 22038 22040 1 120.0200517 532.790560
22039 22038 22040 1 119.8800511 375.723200
22031 22040 22038 1 120.0200517 532.790560
22031 22040 22041 1 119.8800511 375.723200
22038 22040 22041 1 119.8800511 375.723200
22042 22043 22044 1 119.8800511 375.723200
22042 22043 22052 1 119.8800511 375.723200
22044 22043 22052 1 120.0200517 532.790560
22043 22044 22045 1 121.3800518 83.010560
22043 22044 22046 1 120.0200517 532.790560
22045 22044 22046 1 121.3800518 83.010560
6519 22045 7624 1 109.50000 418.400000
6519 22045 9930 1 109.50000 418.400000
6519 22045 22044 1 103.70004 836.800000
7624 22045 9930 1 109.50000 418.400000
7624 22045 22044 1 103.70004 836.800000
9930 22045 22044 1 103.70004 836.800000
22044 22046 22047 1 119.8800511 375.723200
22044 22046 22048 1 120.0200517 532.790560
22047 22046 22048 1 119.8800511 375.723200
22046 22048 22049 1 119.8800511 375.723200
22046 22048 22050 1 120.0200517 532.790560
22049 22048 22050 1 119.8800511 375.723200
22048 22050 22051 1 119.8800511 375.723200
22048 22050 22052 1 120.0200517 532.790560
22051 22050 22052 1 119.8800511 375.723200
22043 22052 22050 1 120.0200517 532.790560
22043 22052 22053 1 119.8800511 375.723200
22050 22052 22053 1 119.8800511 375.723200
22054 22055 22056 1 119.8800511 375.723200
22054 22055 22064 1 119.8800511 375.723200
22056 22055 22064 1 120.0200517 532.790560
22055 22056 22057 1 121.3800518 83.010560
22055 22056 22058 1 120.0200517 532.790560
22057 22056 22058 1 121.3800518 83.010560
4807 22057 4808 1 109.50000 418.400000
4807 22057 4809 1 109.50000 418.400000
4807 22057 22056 1 103.70004 836.800000
4808 22057 4809 1 109.50000 418.400000
4808 22057 22056 1 103.70004 836.800000
4809 22057 22056 1 103.70004 836.800000
22056 22058 22059 1 119.8800511 375.723200
22056 22058 22060 1 120.0200517 532.790560
22059 22058 22060 1 119.8800511 375.723200
22058 22060 22061 1 119.8800511 375.723200
22058 22060 22062 1 120.0200517 532.790560
22061 22060 22062 1 119.8800511 375.723200
22060 22062 22063 1 119.8800511 375.723200
22060 22062 22064 1 120.0200517 532.790560
22063 22062 22064 1 119.8800511 375.723200
22055 22064 22062 1 120.0200517 532.790560
22055 22064 22065 1 119.8800511 375.723200
22062 22064 22065 1 119.8800511 375.723200
22066 22067 22068 1 119.8800511 375.723200
22066 22067 22076 1 119.8800511 375.723200
22068 22067 22076 1 120.0200517 532.790560
22067 22068 22069 1 121.3800518 83.010560
22067 22068 22070 1 120.0200517 532.790560
22069 22068 22070 1 121.3800518 83.010560
742 22069 5551 1 109.50000 418.400000
742 22069 5552 1 109.50000 418.400000
742 22069 22068 1 103.70004 836.800000
5551 22069 5552 1 109.50000 418.400000
5551 22069 22068 1 103.70004 836.800000
5552 22069 22068 1 103.70004 836.800000
22068 22070 22071 1 119.8800511 375.723200
22068 22070 22072 1 120.0200517 532.790560
22071 22070 22072 1 119.8800511 375.723200
22070 22072 22073 1 119.8800511 375.723200
22070 22072 22074 1 120.0200517 532.790560
22073 22072 22074 1 119.8800511 375.723200
22072 22074 22075 1 119.8800511 375.723200
22072 22074 22076 1 120.0200517 532.790560
22075 22074 22076 1 119.8800511 375.723200
22067 22076 22074 1 120.0200517 532.790560
22067 22076 22077 1 119.8800511 375.723200
22074 22076 22077 1 119.8800511 375.723200
22078 22079 22080 1 119.8800511 375.723200
22078 22079 22088 1 119.8800511 375.723200
22080 22079 22088 1 120.0200517 532.790560
22079 22080 22081 1 121.3800518 83.010560
22079 22080 22082 1 120.0200517 532.790560
22081 22080 22082 1 121.3800518 83.010560
796 22081 4530 1 109.50000 418.400000
796 22081 9194 1 109.50000 418.400000
796 22081 22080 1 103.70004 836.800000
4530 22081 9194 1 109.50000 418.400000
4530 22081 22080 1 103.70004 836.800000
9194 22081 22080 1 103.70004 836.800000
22080 22082 22083 1 119.8800511 375.723200
22080 22082 22084 1 120.0200517 532.790560
22083 22082 22084 1 119.8800511 375.723200
22082 22084 22085 1 119.8800511 375.723200
22082 22084 22086 1 120.0200517 532.790560
22085 22084 22086 1 119.8800511 375.723200
22084 22086 22087 1 119.8800511 375.723200
22084 22086 22088 1 120.0200517 532.790560
22087 22086 22088 1 119.8800511 375.723200
22079 22088 22086 1 120.0200517 532.790560
22079 22088 22089 1 119.8800511 375.723200
22086 22088 22089 1 119.8800511 375.723200
22090 22091 22092 1 119.8800511 375.723200
22090 22091 22100 1 119.8800511 375.723200
22092 22091 22100 1 120.0200517 532.790560
22091 22092 22093 1 121.3800518 83.010560
22091 22092 22094 1 120.0200517 532.790560
22093 22092 22094 1 121.3800518 83.010560
1644 22093 1645 1 109.50000 418.400000
1644 22093 1646 1 109.50000 418.400000
1644 22093 22092 1 103.70004 836.800000
1645 22093 1646 1 109.50000 418.400000
1645 22093 22092 1 103.70004 836.800000
1646 22093 22092 1 103.70004 836.800000
22092 22094 22095 1 119.8800511 375.723200
22092 22094 22096 1 120.0200517 532.790560
22095 22094 22096 1 119.8800511 375.723200
22094 22096 22097 1 119.8800511 375.723200
22094 22096 22098 1 120.0200517 532.790560
22097 22096 22098 1 119.8800511 375.723200
22096 22098 22099 1 119.8800511 375.723200
22096 22098 22100 1 120.0200517 532.790560
22099 22098 22100 1 119.8800511 375.723200
22091 22100 22098 1 120.0200517 532.790560
22091 22100 22101 1 119.8800511 375.723200
22098 22100 22101 1 119.8800511 375.723200
22102 22103 22104 1 119.8800511 375.723200
22102 22103 22112 1 119.8800511 375.723200
22104 22103 22112 1 120.0200517 532.790560
22103 22104 22105 1 121.3800518 83.010560
22103 22104 22106 1 120.0200517 532.790560
22105 22104 22106 1 121.3800518 83.010560
469 22105 3072 1 109.50000 418.400000
469 22105 10144 1 109.50000 418.400000
469 22105 22104 1 103.70004 836.800000
3072 22105 10144 1 109.50000 418.400000
3072 22105 22104 1 103.70004 836.800000
10144 22105 22104 1 103.70004 836.800000
22104 22106 22107 1 119.8800511 375.723200
22104 22106 22108 1 120.0200517 532.790560
22107 22106 22108 1 119.8800511 375.723200
22106 22108 22109 1 119.8800511 375.723200
22106 22108 22110 1 120.0200517 532.790560
22109 22108 22110 1 119.8800511 375.723200
22108 22110 22111 1 119.8800511 375.723200
22108 22110 22112 1 120.0200517 532.790560
22111 22110 22112 1 119.8800511 375.723200
22103 22112 22110 1 120.0200517 532.790560
22103 22112 22113 1 119.8800511 375.723200
22110 22112 22113 1 119.8800511 375.723200
22114 22115 22116 1 119.8800511 375.723200
22114 22115 22124 1 119.8800511 375.723200
22116 22115 22124 1 120.0200517 532.790560
22115 22116 22117 1 121.3800518 83.010560
22115 22116 22118 1 120.0200517 532.790560
22117 22116 22118 1 121.3800518 83.010560
2568 22117 4033 1 109.50000 418.400000
2568 22117 7493 1 109.50000 418.400000
2568 22117 22116 1 103.70004 836.800000
4033 22117 7493 1 109.50000 418.400000
4033 22117 22116 1 103.70004 836.800000
7493 22117 22116 1 103.70004 836.800000
22116 22118 22119 1 119.8800511 375.723200
22116 22118 22120 1 120.0200517 532.790560
22119 22118 22120 1 119.8800511 375.723200
22118 22120 22121 1 119.8800511 375.723200
22118 22120 22122 1 120.0200517 532.790560
22121 22120 22122 1 119.8800511 375.723200
22120 22122 22123 1 119.8800511 375.723200
22120 22122 22124 1 120.0200517 532.790560
22123 22122 22124 1 119.8800511 375.723200
22115 22124 22122 1 120.0200517 532.790560
22115 22124 22125 1 119.8800511 375.723200
22122 22124 22125 1 119.8800511 375.723200
22126 22127 22128 1 119.8800511 375.723200
22126 22127 22136 1 119.8800511 375.723200
22128 22127 22136 1 120.0200517 532.790560
22127 22128 22129 1 121.3800518 83.010560
22127 22128 22130 1 120.0200517 532.790560
22129 22128 22130 1 121.3800518 83.010560
4790 22129 9021 1 109.50000 418.400000
4790 22129 10756 1 109.50000 418.400000
4790 22129 22128 1 103.70004 836.800000
9021 22129 10756 1 109.50000 418.400000
9021 22129 22128 1 103.70004 836.800000
10756 22129 22128 1 103.70004 836.800000
22128 22130 22131 1 119.8800511 375.723200
22128 22130 22132 1 120.0200517 532.790560
22131 22130 22132 1 119.8800511 375.723200
22130 22132 22133 1 119.8800511 375.723200
22130 22132 22134 1 120.0200517 532.790560
22133 22132 22134 1 119.8800511 375.723200
22132 22134 22135 1 119.8800511 375.723200
22132 22134 22136 1 120.0200517 532.790560
22135 22134 22136 1 119.8800511 375.723200
22127 22136 22134 1 120.0200517 532.790560
22127 22136 22137 1 119.8800511 375.723200
22134 22136 22137 1 119.8800511 375.723200
22138 22139 22140 1 119.8800511 375.723200
22138 22139 22148 1 119.8800511 375.723200
22140 22139 22148 1 120.0200517 532.790560
22139 22140 22141 1 121.3800518 83.010560
22139 22140 22142 1 120.0200517 532.790560
22141 22140 22142 1 121.3800518 83.010560
1455 22141 7180 1 109.50000 418.400000
1455 22141 11182 1 109.50000 418.400000
1455 22141 22140 1 103.70004 836.800000
7180 22141 11182 1 109.50000 418.400000
7180 22141 22140 1 103.70004 836.800000
11182 22141 22140 1 103.70004 836.800000
22140 22142 22143 1 119.8800511 375.723200
22140 22142 22144 1 120.0200517 532.790560
22143 22142 22144 1 119.8800511 375.723200
22142 22144 22145 1 119.8800511 375.723200
22142 22144 22146 1 120.0200517 532.790560
22145 22144 22146 1 119.8800511 375.723200
22144 22146 22147 1 119.8800511 375.723200
22144 22146 22148 1 120.0200517 532.790560
22147 22146 22148 1 119.8800511 375.723200
22139 22148 22146 1 120.0200517 532.790560
22139 22148 22149 1 119.8800511 375.723200
22146 22148 22149 1 119.8800511 375.723200
22150 22151 22152 1 119.8800511 375.723200
22150 22151 22160 1 119.8800511 375.723200
22152 22151 22160 1 120.0200517 532.790560
22151 22152 22153 1 121.3800518 83.010560
22151 22152 22154 1 120.0200517 532.790560
22153 22152 22154 1 121.3800518 83.010560
9405 22153 9993 1 109.50000 418.400000
9405 22153 9995 1 109.50000 418.400000
9405 22153 22152 1 103.70004 836.800000
9993 22153 9995 1 109.50000 418.400000
9993 22153 22152 1 103.70004 836.800000
9995 22153 22152 1 103.70004 836.800000
22152 22154 22155 1 119.8800511 375.723200
22152 22154 22156 1 120.0200517 532.790560
22155 22154 22156 1 119.8800511 375.723200
22154 22156 22157 1 119.8800511 375.723200
22154 22156 22158 1 120.0200517 532.790560
22157 22156 22158 1 119.8800511 375.723200
22156 22158 22159 1 119.8800511 375.723200
22156 22158 22160 1 120.0200517 532.790560
22159 22158 22160 1 119.8800511 375.723200
22151 22160 22158 1 120.0200517 532.790560
22151 22160 22161 1 119.8800511 375.723200
22158 22160 22161 1 119.8800511 375.723200
22162 22163 22164 1 119.8800511 375.723200
22162 22163 22172 1 119.8800511 375.723200
22164 22163 22172 1 120.0200517 532.790560
22163 22164 22165 1 121.3800518 83.010560
22163 22164 22166 1 120.0200517 532.790560
22165 22164 22166 1 121.3800518 83.010560
2043 22165 4814 1 109.50000 418.400000
2043 22165 7001 1 109.50000 418.400000
2043 22165 22164 1 103.70004 836.800000
4814 22165 7001 1 109.50000 418.400000
4814 22165 22164 1 103.70004 836.800000
7001 22165 22164 1 103.70004 836.800000
22164 22166 22167 1 119.8800511 375.723200
22164 22166 22168 1 120.0200517 532.790560
22167 22166 22168 1 119.8800511 375.723200
22166 22168 22169 1 119.8800511 375.723200
22166 22168 22170 1 120.0200517 532.790560
22169 22168 22170 1 119.8800511 375.723200
22168 22170 22171 1 119.8800511 375.723200
22168 22170 22172 1 120.0200517 532.790560
22171 22170 22172 1 119.8800511 375.723200
22163 22172 22170 1 120.0200517 532.790560
22163 22172 22173 1 119.8800511 375.723200
22170 22172 22173 1 119.8800511 375.723200
22174 22175 22176 1 119.8800511 375.723200
22174 22175 22184 1 119.8800511 375.723200
22176 22175 22184 1 120.0200517 532.790560
22175 22176 22177 1 121.3800518 83.010560
22175 22176 22178 1 120.0200517 532.790560
22177 22176 22178 1 121.3800518 83.010560
1206 22177 1207 1 109.50000 418.400000
1206 22177 11157 1 109.50000 418.400000
1206 22177 22176 1 103.70004 836.800000
1207 22177 11157 1 109.50000 418.400000
1207 22177 22176 1 103.70004 836.800000
11157 22177 22176 1 103.70004 836.800000
22176 22178 22179 1 119.8800511 375.723200
22176 22178 22180 1 120.0200517 532.790560
22179 22178 22180 1 119.8800511 375.723200
22178 22180 22181 1 119.8800511 375.723200
22178 22180 22182 1 120.0200517 532.790560
22181 22180 22182 1 119.8800511 375.723200
22180 22182 22183 1 119.8800511 375.723200
22180 22182 22184 1 120.0200517 532.790560
22183 22182 22184 1 119.8800511 375.723200
22175 22184 22182 1 120.0200517 532.790560
22175 22184 22185 1 119.8800511 375.723200
22182 22184 22185 1 119.8800511 375.723200
22186 22187 22188 1 119.8800511 375.723200
22186 22187 22196 1 119.8800511 375.723200
22188 22187 22196 1 120.0200517 532.790560
22187 22188 22189 1 121.3800518 83.010560
22187 22188 22190 1 120.0200517 532.790560
22189 22188 22190 1 121.3800518 83.010560
887 22189 888 1 109.50000 418.400000
887 22189 889 1 109.50000 418.400000
887 22189 22188 1 103.70004 836.800000
888 22189 889 1 109.50000 418.400000
888 22189 22188 1 103.70004 836.800000
889 22189 22188 1 103.70004 836.800000
22188 22190 22191 1 119.8800511 375.723200
22188 22190 22192 1 120.0200517 532.790560
22191 22190 22192 1 119.8800511 375.723200
22190 22192 22193 1 119.8800511 375.723200
22190 22192 22194 1 120.0200517 532.790560
22193 22192 22194 1 119.8800511 375.723200
22192 22194 22195 1 119.8800511 375.723200
22192 22194 22196 1 120.0200517 532.790560
22195 22194 22196 1 119.8800511 375.723200
22187 22196 22194 1 120.0200517 532.790560
22187 22196 22197 1 119.8800511 375.723200
22194 22196 22197 1 119.8800511 375.723200
22198 22199 22200 1 119.8800511 375.723200
22198 22199 22208 1 119.8800511 375.723200
22200 22199 22208 1 120.0200517 532.790560
22199 22200 22201 1 121.3800518 83.010560
22199 22200 22202 1 120.0200517 532.790560
22201 22200 22202 1 121.3800518 83.010560
46 22201 5848 1 109.50000 418.400000
46 22201 11162 1 109.50000 418.400000
46 22201 22200 1 103.70004 836.800000
5848 22201 11162 1 109.50000 418.400000
5848 22201 22200 1 103.70004 836.800000
11162 22201 22200 1 103.70004 836.800000
22200 22202 22203 1 119.8800511 375.723200
22200 22202 22204 1 120.0200517 532.790560
22203 22202 22204 1 119.8800511 375.723200
22202 22204 22205 1 119.8800511 375.723200
22202 22204 22206 1 120.0200517 532.790560
22205 22204 22206 1 119.8800511 375.723200
22204 22206 22207 1 119.8800511 375.723200
22204 22206 22208 1 120.0200517 532.790560
22207 22206 22208 1 119.8800511 375.723200
22199 22208 22206 1 120.0200517 532.790560
22199 22208 22209 1 119.8800511 375.723200
22206 22208 22209 1 119.8800511 375.723200
22210 22211 22212 1 119.8800511 375.723200
22210 22211 22220 1 119.8800511 375.723200
22212 22211 22220 1 120.0200517 532.790560
22211 22212 22213 1 121.3800518 83.010560
22211 22212 22214 1 120.0200517 532.790560
22213 22212 22214 1 121.3800518 83.010560
4674 22213 8878 1 109.50000 418.400000
4674 22213 8879 1 109.50000 418.400000
4674 22213 22212 1 103.70004 836.800000
8878 22213 8879 1 109.50000 418.400000
8878 22213 22212 1 103.70004 836.800000
8879 22213 22212 1 103.70004 836.800000
22212 22214 22215 1 119.8800511 375.723200
22212 22214 22216 1 120.0200517 532.790560
22215 22214 22216 1 119.8800511 375.723200
22214 22216 22217 1 119.8800511 375.723200
22214 22216 22218 1 120.0200517 532.790560
22217 22216 22218 1 119.8800511 375.723200
22216 22218 22219 1 119.8800511 375.723200
22216 22218 22220 1 120.0200517 532.790560
22219 22218 22220 1 119.8800511 375.723200
22211 22220 22218 1 120.0200517 532.790560
22211 22220 22221 1 119.8800511 375.723200
22218 22220 22221 1 119.8800511 375.723200
22222 22223 22224 1 119.8800511 375.723200
22222 22223 22232 1 119.8800511 375.723200
22224 22223 22232 1 120.0200517 532.790560
22223 22224 22225 1 121.3800518 83.010560
22223 22224 22226 1 120.0200517 532.790560
22225 22224 22226 1 121.3800518 83.010560
3993 22225 8879 1 109.50000 418.400000
3993 22225 11219 1 109.50000 418.400000
3993 22225 22224 1 103.70004 836.800000
8879 22225 11219 1 109.50000 418.400000
8879 22225 22224 1 103.70004 836.800000
11219 22225 22224 1 103.70004 836.800000
22224 22226 22227 1 119.8800511 375.723200
22224 22226 22228 1 120.0200517 532.790560
22227 22226 22228 1 119.8800511 375.723200
22226 22228 22229 1 119.8800511 375.723200
22226 22228 22230 1 120.0200517 532.790560
22229 22228 22230 1 119.8800511 375.723200
22228 22230 22231 1 119.8800511 375.723200
22228 22230 22232 1 120.0200517 532.790560
22231 22230 22232 1 119.8800511 375.723200
22223 22232 22230 1 120.0200517 532.790560
22223 22232 22233 1 119.8800511 375.723200
22230 22232 22233 1 119.8800511 375.723200
22234 22235 22236 1 119.8800511 375.723200
22234 22235 22244 1 119.8800511 375.723200
22236 22235 22244 1 120.0200517 532.790560
22235 22236 22237 1 121.3800518 83.010560
22235 22236 22238 1 120.0200517 532.790560
22237 22236 22238 1 121.3800518 83.010560
9189 22237 9190 1 109.50000 418.400000
9189 22237 9191 1 109.50000 418.400000
9189 22237 22236 1 103.70004 836.800000
9190 22237 9191 1 109.50000 418.400000
9190 22237 22236 1 103.70004 836.800000
9191 22237 22236 1 103.70004 836.800000
22236 22238 22239 1 119.8800511 375.723200
22236 22238 22240 1 120.0200517 532.790560
22239 22238 22240 1 119.8800511 375.723200
22238 22240 22241 1 119.8800511 375.723200
22238 22240 22242 1 120.0200517 532.790560
22241 22240 22242 1 119.8800511 375.723200
22240 22242 22243 1 119.8800511 375.723200
22240 22242 22244 1 120.0200517 532.790560
22243 22242 22244 1 119.8800511 375.723200
22235 22244 22242 1 120.0200517 532.790560
22235 22244 22245 1 119.8800511 375.723200
22242 22244 22245 1 119.8800511 375.723200
22246 22247 22248 1 119.8800511 375.723200
22246 22247 22256 1 119.8800511 375.723200
22248 22247 22256 1 120.0200517 532.790560
22247 22248 22249 1 121.3800518 83.010560
22247 22248 22250 1 120.0200517 532.790560
22249 22248 22250 1 121.3800518 83.010560
619 22249 620 1 109.50000 418.400000
619 22249 621 1 109.50000 418.400000
619 22249 22248 1 103.70004 836.800000
620 22249 621 1 109.50000 418.400000
620 22249 22248 1 103.70004 836.800000
621 22249 22248 1 103.70004 836.800000
22248 22250 22251 1 119.8800511 375.723200
22248 22250 22252 1 120.0200517 532.790560
22251 22250 22252 1 119.8800511 375.723200
22250 22252 22253 1 119.8800511 375.723200
22250 22252 22254 1 120.0200517 532.790560
22253 22252 22254 1 119.8800511 375.723200
22252 22254 22255 1 119.8800511 375.723200
22252 22254 22256 1 120.0200517 532.790560
22255 22254 22256 1 119.8800511 375.723200
22247 22256 22254 1 120.0200517 532.790560
22247 22256 22257 1 119.8800511 375.723200
22254 22256 22257 1 119.8800511 375.723200
22258 22259 22260 1 119.8800511 375.723200
22258 22259 22268 1 119.8800511 375.723200
22260 22259 22268 1 120.0200517 532.790560
22259 22260 22261 1 121.3800518 83.010560
22259 22260 22262 1 120.0200517 532.790560
22261 22260 22262 1 121.3800518 83.010560
8275 22261 10439 1 109.50000 418.400000
8275 22261 10911 1 109.50000 418.400000
8275 22261 22260 1 103.70004 836.800000
10439 22261 10911 1 109.50000 418.400000
10439 22261 22260 1 103.70004 836.800000
10911 22261 22260 1 103.70004 836.800000
22260 22262 22263 1 119.8800511 375.723200
22260 22262 22264 1 120.0200517 532.790560
22263 22262 22264 1 119.8800511 375.723200
22262 22264 22265 1 119.8800511 375.723200
22262 22264 22266 1 120.0200517 532.790560
22265 22264 22266 1 119.8800511 375.723200
22264 22266 22267 1 119.8800511 375.723200
22264 22266 22268 1 120.0200517 532.790560
22267 22266 22268 1 119.8800511 375.723200
22259 22268 22266 1 120.0200517 532.790560
22259 22268 22269 1 119.8800511 375.723200
22266 22268 22269 1 119.8800511 375.723200
22270 22271 22272 1 119.8800511 375.723200
22270 22271 22280 1 119.8800511 375.723200
22272 22271 22280 1 120.0200517 532.790560
22271 22272 22273 1 121.3800518 83.010560
22271 22272 22274 1 120.0200517 532.790560
22273 22272 22274 1 121.3800518 83.010560
3727 22273 9679 1 109.50000 418.400000
3727 22273 9751 1 109.50000 418.400000
3727 22273 22272 1 103.70004 836.800000
9679 22273 9751 1 109.50000 418.400000
9679 22273 22272 1 103.70004 836.800000
9751 22273 22272 1 103.70004 836.800000
22272 22274 22275 1 119.8800511 375.723200
22272 22274 22276 1 120.0200517 532.790560
22275 22274 22276 1 119.8800511 375.723200
22274 22276 22277 1 119.8800511 375.723200
22274 22276 22278 1 120.0200517 532.790560
22277 22276 22278 1 119.8800511 375.723200
22276 22278 22279 1 119.8800511 375.723200
22276 22278 22280 1 120.0200517 532.790560
22279 22278 22280 1 119.8800511 375.723200
22271 22280 22278 1 120.0200517 532.790560
22271 22280 22281 1 119.8800511 375.723200
22278 22280 22281 1 119.8800511 375.723200
22282 22283 22284 1 119.8800511 375.723200
22282 22283 22292 1 119.8800511 375.723200
22284 22283 22292 1 120.0200517 532.790560
22283 22284 22285 1 121.3800518 83.010560
22283 22284 22286 1 120.0200517 532.790560
22285 22284 22286 1 121.3800518 83.010560
2558 22285 2559 1 109.50000 418.400000
2558 22285 2560 1 109.50000 418.400000
2558 22285 22284 1 103.70004 836.800000
2559 22285 2560 1 109.50000 418.400000
2559 22285 22284 1 103.70004 836.800000
2560 22285 22284 1 103.70004 836.800000
22284 22286 22287 1 119.8800511 375.723200
22284 22286 22288 1 120.0200517 532.790560
22287 22286 22288 1 119.8800511 375.723200
22286 22288 22289 1 119.8800511 375.723200
22286 22288 22290 1 120.0200517 532.790560
22289 22288 22290 1 119.8800511 375.723200
22288 22290 22291 1 119.8800511 375.723200
22288 22290 22292 1 120.0200517 532.790560
22291 22290 22292 1 119.8800511 375.723200
22283 22292 22290 1 120.0200517 532.790560
22283 22292 22293 1 119.8800511 375.723200
22290 22292 22293 1 119.8800511 375.723200
22294 22295 22296 1 119.8800511 375.723200
22294 22295 22304 1 119.8800511 375.723200
22296 22295 22304 1 120.0200517 532.790560
22295 22296 22297 1 121.3800518 83.010560
22295 22296 22298 1 120.0200517 532.790560
22297 22296 22298 1 121.3800518 83.010560
2986 22297 2987 1 109.50000 418.400000
2986 22297 2988 1 109.50000 418.400000
2986 22297 22296 1 103.70004 836.800000
2987 22297 2988 1 109.50000 418.400000
2987 22297 22296 1 103.70004 836.800000
2988 22297 22296 1 103.70004 836.800000
22296 22298 22299 1 119.8800511 375.723200
22296 22298 22300 1 120.0200517 532.790560
22299 22298 22300 1 119.8800511 375.723200
22298 22300 22301 1 119.8800511 375.723200
22298 22300 22302 1 120.0200517 532.790560
22301 22300 22302 1 119.8800511 375.723200
22300 22302 22303 1 119.8800511 375.723200
22300 22302 22304 1 120.0200517 532.790560
22303 22302 22304 1 119.8800511 375.723200
22295 22304 22302 1 120.0200517 532.790560
22295 22304 22305 1 119.8800511 375.723200
22302 22304 22305 1 119.8800511 375.723200
22306 22307 22308 1 119.8800511 375.723200
22306 22307 22316 1 119.8800511 375.723200
22308 22307 22316 1 120.0200517 532.790560
22307 22308 22309 1 121.3800518 83.010560
22307 22308 22310 1 120.0200517 532.790560
22309 22308 22310 1 121.3800518 83.010560
815 22309 6756 1 109.50000 418.400000
815 22309 6757 1 109.50000 418.400000
815 22309 22308 1 103.70004 836.800000
6756 22309 6757 1 109.50000 418.400000
6756 22309 22308 1 103.70004 836.800000
6757 22309 22308 1 103.70004 836.800000
22308 22310 22311 1 119.8800511 375.723200
22308 22310 22312 1 120.0200517 532.790560
22311 22310 22312 1 119.8800511 375.723200
22310 22312 22313 1 119.8800511 375.723200
22310 22312 22314 1 120.0200517 532.790560
22313 22312 22314 1 119.8800511 375.723200
22312 22314 22315 1 119.8800511 375.723200
22312 22314 22316 1 120.0200517 532.790560
22315 22314 22316 1 119.8800511 375.723200
22307 22316 22314 1 120.0200517 532.790560
22307 22316 22317 1 119.8800511 375.723200
22314 22316 22317 1 119.8800511 375.723200
22318 22319 22320 1 119.8800511 375.723200
22318 22319 22328 1 119.8800511 375.723200
22320 22319 22328 1 120.0200517 532.790560
22319 22320 22321 1 121.3800518 83.010560
22319 22320 22322 1 120.0200517 532.790560
22321 22320 22322 1 121.3800518 83.010560
6395 22321 6396 1 109.50000 418.400000
6395 22321 6397 1 109.50000 418.400000
6395 22321 22320 1 103.70004 836.800000
6396 22321 6397 1 109.50000 418.400000
6396 22321 22320 1 103.70004 836.800000
6397 22321 22320 1 103.70004 836.800000
22320 22322 22323 1 119.8800511 375.723200
22320 22322 22324 1 120.0200517 532.790560
22323 22322 22324 1 119.8800511 375.723200
22322 22324 22325 1 119.8800511 375.723200
22322 22324 22326 1 120.0200517 532.790560
22325 22324 22326 1 119.8800511 375.723200
22324 22326 22327 1 119.8800511 375.723200
22324 22326 22328 1 120.0200517 532.790560
22327 22326 22328 1 119.8800511 375.723200
22319 22328 22326 1 120.0200517 532.790560
22319 22328 22329 1 119.8800511 375.723200
22326 22328 22329 1 119.8800511 375.723200
22330 22331 22332 1 119.8800511 375.723200
22330 22331 22340 1 119.8800511 375.723200
22332 22331 22340 1 120.0200517 532.790560
22331 22332 22333 1 121.3800518 83.010560
22331 22332 22334 1 120.0200517 532.790560
22333 22332 22334 1 121.3800518 83.010560
3773 22333 8511 1 109.50000 418.400000
3773 22333 8512 1 109.50000 418.400000
3773 22333 22332 1 103.70004 836.800000
8511 22333 8512 1 109.50000 418.400000
8511 22333 22332 1 103.70004 836.800000
8512 22333 22332 1 103.70004 836.800000
22332 22334 22335 1 119.8800511 375.723200
22332 22334 22336 1 120.0200517 532.790560
22335 22334 22336 1 119.8800511 375.723200
22334 22336 22337 1 119.8800511 375.723200
22334 22336 22338 1 120.0200517 532.790560
22337 22336 22338 1 119.8800511 375.723200
22336 22338 22339 1 119.8800511 375.723200
22336 22338 22340 1 120.0200517 532.790560
22339 22338 22340 1 119.8800511 375.723200
22331 22340 22338 1 120.0200517 532.790560
22331 22340 22341 1 119.8800511 375.723200
22338 22340 22341 1 119.8800511 375.723200
22342 22343 22344 1 119.8800511 375.723200
22342 22343 22352 1 119.8800511 375.723200
22344 22343 22352 1 120.0200517 532.790560
22343 22344 22345 1 121.3800518 83.010560
22343 22344 22346 1 120.0200517 532.790560
22345 22344 22346 1 121.3800518 83.010560
3922 22345 3923 1 109.50000 418.400000
3922 22345 8923 1 109.50000 418.400000
3922 22345 22344 1 103.70004 836.800000
3923 22345 8923 1 109.50000 418.400000
3923 22345 22344 1 103.70004 836.800000
8923 22345 22344 1 103.70004 836.800000
22344 22346 22347 1 119.8800511 375.723200
22344 22346 22348 1 120.0200517 532.790560
22347 22346 22348 1 119.8800511 375.723200
22346 22348 22349 1 119.8800511 375.723200
22346 22348 22350 1 120.0200517 532.790560
22349 22348 22350 1 119.8800511 375.723200
22348 22350 22351 1 119.8800511 375.723200
22348 22350 22352 1 120.0200517 532.790560
22351 22350 22352 1 119.8800511 375.723200
22343 22352 22350 1 120.0200517 532.790560
22343 22352 22353 1 119.8800511 375.723200
22350 22352 22353 1 119.8800511 375.723200
22354 22355 22356 1 119.8800511 375.723200
22354 22355 22364 1 119.8800511 375.723200
22356 22355 22364 1 120.0200517 532.790560
22355 22356 22357 1 121.3800518 83.010560
22355 22356 22358 1 120.0200517 532.790560
22357 22356 22358 1 121.3800518 83.010560
1926 22357 1927 1 109.50000 418.400000
1926 22357 9824 1 109.50000 418.400000
1926 22357 22356 1 103.70004 836.800000
1927 22357 9824 1 109.50000 418.400000
1927 22357 22356 1 103.70004 836.800000
9824 22357 22356 1 103.70004 836.800000
22356 22358 22359 1 119.8800511 375.723200
22356 22358 22360 1 120.0200517 532.790560
22359 22358 22360 1 119.8800511 375.723200
22358 22360 22361 1 119.8800511 375.723200
22358 22360 22362 1 120.0200517 532.790560
22361 22360 22362 1 119.8800511 375.723200
22360 22362 22363 1 119.8800511 375.723200
22360 22362 22364 1 120.0200517 532.790560
22363 22362 22364 1 119.8800511 375.723200
22355 22364 22362 1 120.0200517 532.790560
22355 22364 22365 1 119.8800511 375.723200
22362 22364 22365 1 119.8800511 375.723200
22366 22367 22368 1 119.8800511 375.723200
22366 22367 22376 1 119.8800511 375.723200
22368 22367 22376 1 120.0200517 532.790560
22367 22368 22369 1 121.3800518 83.010560
22367 22368 22370 1 120.0200517 532.790560
22369 22368 22370 1 121.3800518 83.010560
1703 22369 5713 1 109.50000 418.400000
1703 22369 5714 1 109.50000 418.400000
1703 22369 22368 1 103.70004 836.800000
5713 22369 5714 1 109.50000 418.400000
5713 22369 22368 1 103.70004 836.800000
5714 22369 22368 1 103.70004 836.800000
22368 22370 22371 1 119.8800511 375.723200
22368 22370 22372 1 120.0200517 532.790560
22371 22370 22372 1 119.8800511 375.723200
22370 22372 22373 1 119.8800511 375.723200
22370 22372 22374 1 120.0200517 532.790560
22373 22372 22374 1 119.8800511 375.723200
22372 22374 22375 1 119.8800511 375.723200
22372 22374 22376 1 120.0200517 532.790560
22375 22374 22376 1 119.8800511 375.723200
22367 22376 22374 1 120.0200517 532.790560
22367 22376 22377 1 119.8800511 375.723200
22374 22376 22377 1 119.8800511 375.723200
22378 22379 22380 1 119.8800511 375.723200
22378 22379 22388 1 119.8800511 375.723200
22380 22379 22388 1 120.0200517 532.790560
22379 22380 22381 1 121.3800518 83.010560
22379 22380 22382 1 120.0200517 532.790560
22381 22380 22382 1 121.3800518 83.010560
5582 22381 6741 1 109.50000 418.400000
5582 22381 6742 1 109.50000 418.400000
5582 22381 22380 1 103.70004 836.800000
6741 22381 6742 1 109.50000 418.400000
6741 22381 22380 1 103.70004 836.800000
6742 22381 22380 1 103.70004 836.800000
22380 22382 22383 1 119.8800511 375.723200
22380 22382 22384 1 120.0200517 532.790560
22383 22382 22384 1 119.8800511 375.723200
22382 22384 22385 1 119.8800511 375.723200
22382 22384 22386 1 120.0200517 532.790560
22385 22384 22386 1 119.8800511 375.723200
22384 22386 22387 1 119.8800511 375.723200
22384 22386 22388 1 120.0200517 532.790560
22387 22386 22388 1 119.8800511 375.723200
22379 22388 22386 1 120.0200517 532.790560
22379 22388 22389 1 119.8800511 375.723200
22386 22388 22389 1 119.8800511 375.723200
22390 22391 22392 1 119.8800511 375.723200
22390 22391 22400 1 119.8800511 375.723200
22392 22391 22400 1 120.0200517 532.790560
22391 22392 22393 1 121.3800518 83.010560
22391 22392 22394 1 120.0200517 532.790560
22393 22392 22394 1 121.3800518 83.010560
3333 22393 3930 1 109.50000 418.400000
3333 22393 8975 1 109.50000 418.400000
3333 22393 22392 1 103.70004 836.800000
3930 22393 8975 1 109.50000 418.400000
3930 22393 22392 1 103.70004 836.800000
8975 22393 22392 1 103.70004 836.800000
22392 22394 22395 1 119.8800511 375.723200
22392 22394 22396 1 120.0200517 532.790560
22395 22394 22396 1 119.8800511 375.723200
22394 22396 22397 1 119.8800511 375.723200
22394 22396 22398 1 120.0200517 532.790560
22397 22396 22398 1 119.8800511 375.723200
22396 22398 22399 1 119.8800511 375.723200
22396 22398 22400 1 120.0200517 532.790560
22399 22398 22400 1 119.8800511 375.723200
22391 22400 22398 1 120.0200517 532.790560
22391 22400 22401 1 119.8800511 375.723200
22398 22400 22401 1 119.8800511 375.723200
22402 22403 22404 1 119.8800511 375.723200
22402 22403 22412 1 119.8800511 375.723200
22404 22403 22412 1 120.0200517 532.790560
22403 22404 22405 1 121.3800518 83.010560
22403 22404 22406 1 120.0200517 532.790560
22405 22404 22406 1 121.3800518 83.010560
10435 22405 10436 1 109.50000 418.400000
10435 22405 10836 1 109.50000 418.400000
10435 22405 22404 1 103.70004 836.800000
10436 22405 10836 1 109.50000 418.400000
10436 22405 22404 1 103.70004 836.800000
10836 22405 22404 1 103.70004 836.800000
22404 22406 22407 1 119.8800511 375.723200
22404 22406 22408 1 120.0200517 532.790560
22407 22406 22408 1 119.8800511 375.723200
22406 22408 22409 1 119.8800511 375.723200
22406 22408 22410 1 120.0200517 532.790560
22409 22408 22410 1 119.8800511 375.723200
22408 22410 22411 1 119.8800511 375.723200
22408 22410 22412 1 120.0200517 532.790560
22411 22410 22412 1 119.8800511 375.723200
22403 22412 22410 1 120.0200517 532.790560
22403 22412 22413 1 119.8800511 375.723200
22410 22412 22413 1 119.8800511 375.723200
22414 22415 22416 1 119.8800511 375.723200
22414 22415 22424 1 119.8800511 375.723200
22416 22415 22424 1 120.0200517 532.790560
22415 22416 22417 1 121.3800518 83.010560
22415 22416 22418 1 120.0200517 532.790560
22417 22416 22418 1 121.3800518 83.010560
6899 22417 8647 1 109.50000 418.400000
6899 22417 8648 1 109.50000 418.400000
6899 22417 22416 1 103.70004 836.800000
8647 22417 8648 1 109.50000 418.400000
8647 22417 22416 1 103.70004 836.800000
8648 22417 22416 1 103.70004 836.800000
22416 22418 22419 1 119.8800511 375.723200
22416 22418 22420 1 120.0200517 532.790560
22419 22418 22420 1 119.8800511 375.723200
22418 22420 22421 1 119.8800511 375.723200
22418 22420 22422 1 120.0200517 532.790560
22421 22420 22422 1 119.8800511 375.723200
22420 22422 22423 1 119.8800511 375.723200
22420 22422 22424 1 120.0200517 532.790560
22423 22422 22424 1 119.8800511 375.723200
22415 22424 22422 1 120.0200517 532.790560
22415 22424 22425 1 119.8800511 375.723200
22422 22424 22425 1 119.8800511 375.723200
22426 22427 22428 1 119.8800511 375.723200
22426 22427 22436 1 119.8800511 375.723200
22428 22427 22436 1 120.0200517 532.790560
22427 22428 22429 1 121.3800518 83.010560
22427 22428 22430 1 120.0200517 532.790560
22429 22428 22430 1 121.3800518 83.010560
3104 22429 3105 1 109.50000 418.400000
3104 22429 3106 1 109.50000 418.400000
3104 22429 22428 1 103.70004 836.800000
3105 22429 3106 1 109.50000 418.400000
3105 22429 22428 1 103.70004 836.800000
3106 22429 22428 1 103.70004 836.800000
22428 22430 22431 1 119.8800511 375.723200
22428 22430 22432 1 120.0200517 532.790560
22431 22430 22432 1 119.8800511 375.723200
22430 22432 22433 1 119.8800511 375.723200
22430 22432 22434 1 120.0200517 532.790560
22433 22432 22434 1 119.8800511 375.723200
22432 22434 22435 1 119.8800511 375.723200
22432 22434 22436 1 120.0200517 532.790560
22435 22434 22436 1 119.8800511 375.723200
22427 22436 22434 1 120.0200517 532.790560
22427 22436 22437 1 119.8800511 375.723200
22434 22436 22437 1 119.8800511 375.723200
22438 22439 22440 1 119.8800511 375.723200
22438 22439 22448 1 119.8800511 375.723200
22440 22439 22448 1 120.0200517 532.790560
22439 22440 22441 1 121.3800518 83.010560
22439 22440 22442 1 120.0200517 532.790560
22441 22440 22442 1 121.3800518 83.010560
2139 22441 2995 1 109.50000 418.400000
2139 22441 10649 1 109.50000 418.400000
2139 22441 22440 1 103.70004 836.800000
2995 22441 10649 1 109.50000 418.400000
2995 22441 22440 1 103.70004 836.800000
10649 22441 22440 1 103.70004 836.800000
22440 22442 22443 1 119.8800511 375.723200
22440 22442 22444 1 120.0200517 532.790560
22443 22442 22444 1 119.8800511 375.723200
22442 22444 22445 1 119.8800511 375.723200
22442 22444 22446 1 120.0200517 532.790560
22445 22444 22446 1 119.8800511 375.723200
22444 22446 22447 1 119.8800511 375.723200
22444 22446 22448 1 120.0200517 532.790560
22447 22446 22448 1 119.8800511 375.723200
22439 22448 22446 1 120.0200517 532.790560
22439 22448 22449 1 119.8800511 375.723200
22446 22448 22449 1 119.8800511 375.723200
22450 22451 22452 1 119.8800511 375.723200
22450 22451 22460 1 119.8800511 375.723200
22452 22451 22460 1 120.0200517 532.790560
22451 22452 22453 1 121.3800518 83.010560
22451 22452 22454 1 120.0200517 532.790560
22453 22452 22454 1 121.3800518 83.010560
5501 22453 5502 1 109.50000 418.400000
5501 22453 5503 1 109.50000 418.400000
5501 22453 22452 1 103.70004 836.800000
5502 22453 5503 1 109.50000 418.400000
5502 22453 22452 1 103.70004 836.800000
5503 22453 22452 1 103.70004 836.800000
22452 22454 22455 1 119.8800511 375.723200
22452 22454 22456 1 120.0200517 532.790560
22455 22454 22456 1 119.8800511 375.723200
22454 22456 22457 1 119.8800511 375.723200
22454 22456 22458 1 120.0200517 532.790560
22457 22456 22458 1 119.8800511 375.723200
22456 22458 22459 1 119.8800511 375.723200
22456 22458 22460 1 120.0200517 532.790560
22459 22458 22460 1 119.8800511 375.723200
22451 22460 22458 1 120.0200517 532.790560
22451 22460 22461 1 119.8800511 375.723200
22458 22460 22461 1 119.8800511 375.723200
22462 22463 22464 1 119.8800511 375.723200
22462 22463 22472 1 119.8800511 375.723200
22464 22463 22472 1 120.0200517 532.790560
22463 22464 22465 1 121.3800518 83.010560
22463 22464 22466 1 120.0200517 532.790560
22465 22464 22466 1 121.3800518 83.010560
8942 22465 10276 1 109.50000 418.400000
8942 22465 11229 1 109.50000 418.400000
8942 22465 22464 1 103.70004 836.800000
10276 22465 11229 1 109.50000 418.400000
10276 22465 22464 1 103.70004 836.800000
11229 22465 22464 1 103.70004 836.800000
22464 22466 22467 1 119.8800511 375.723200
22464 22466 22468 1 120.0200517 532.790560
22467 22466 22468 1 119.8800511 375.723200
22466 22468 22469 1 119.8800511 375.723200
22466 22468 22470 1 120.0200517 532.790560
22469 22468 22470 1 119.8800511 375.723200
22468 22470 22471 1 119.8800511 375.723200
22468 22470 22472 1 120.0200517 532.790560
22471 22470 22472 1 119.8800511 375.723200
22463 22472 22470 1 120.0200517 532.790560
22463 22472 22473 1 119.8800511 375.723200
22470 22472 22473 1 119.8800511 375.723200
22474 22475 22476 1 119.8800511 375.723200
22474 22475 22484 1 119.8800511 375.723200
22476 22475 22484 1 120.0200517 532.790560
22475 22476 22477 1 121.3800518 83.010560
22475 22476 22478 1 120.0200517 532.790560
22477 22476 22478 1 121.3800518 83.010560
840 22477 4033 1 109.50000 418.400000
840 22477 4034 1 109.50000 418.400000
840 22477 22476 1 103.70004 836.800000
4033 22477 4034 1 109.50000 418.400000
4033 22477 22476 1 103.70004 836.800000
4034 22477 22476 1 103.70004 836.800000
22476 22478 22479 1 119.8800511 375.723200
22476 22478 22480 1 120.0200517 532.790560
22479 22478 22480 1 119.8800511 375.723200
22478 22480 22481 1 119.8800511 375.723200
22478 22480 22482 1 120.0200517 532.790560
22481 22480 22482 1 119.8800511 375.723200
22480 22482 22483 1 119.8800511 375.723200
22480 22482 22484 1 120.0200517 532.790560
22483 22482 22484 1 119.8800511 375.723200
22475 22484 22482 1 120.0200517 532.790560
22475 22484 22485 1 119.8800511 375.723200
22482 22484 22485 1 119.8800511 375.723200
22486 22487 22488 1 119.8800511 375.723200
22486 22487 22496 1 119.8800511 375.723200
22488 22487 22496 1 120.0200517 532.790560
22487 22488 22489 1 121.3800518 83.010560
22487 22488 22490 1 120.0200517 532.790560
22489 22488 22490 1 121.3800518 83.010560
8089 22489 8090 1 109.50000 418.400000
8089 22489 10514 1 109.50000 418.400000
8089 22489 22488 1 103.70004 836.800000
8090 22489 10514 1 109.50000 418.400000
8090 22489 22488 1 103.70004 836.800000
10514 22489 22488 1 103.70004 836.800000
22488 22490 22491 1 119.8800511 375.723200
22488 22490 22492 1 120.0200517 532.790560
22491 22490 22492 1 119.8800511 375.723200
22490 22492 22493 1 119.8800511 375.723200
22490 22492 22494 1 120.0200517 532.790560
22493 22492 22494 1 119.8800511 375.723200
22492 22494 22495 1 119.8800511 375.723200
22492 22494 22496 1 120.0200517 532.790560
22495 22494 22496 1 119.8800511 375.723200
22487 22496 22494 1 120.0200517 532.790560
22487 22496 22497 1 119.8800511 375.723200
22494 22496 22497 1 119.8800511 375.723200
22498 22499 22500 1 119.8800511 375.723200
22498 22499 22508 1 119.8800511 375.723200
22500 22499 22508 1 120.0200517 532.790560
22499 22500 22501 1 121.3800518 83.010560
22499 22500 22502 1 120.0200517 532.790560
22501 22500 22502 1 121.3800518 83.010560
797 22501 798 1 109.50000 418.400000
797 22501 799 1 109.50000 418.400000
797 22501 22500 1 103.70004 836.800000
798 22501 799 1 109.50000 418.400000
798 22501 22500 1 103.70004 836.800000
799 22501 22500 1 103.70004 836.800000
22500 22502 22503 1 119.8800511 375.723200
22500 22502 22504 1 120.0200517 532.790560
22503 22502 22504 1 119.8800511 375.723200
22502 22504 22505 1 119.8800511 375.723200
22502 22504 22506 1 120.0200517 532.790560
22505 22504 22506 1 119.8800511 375.723200
22504 22506 22507 1 119.8800511 375.723200
22504 22506 22508 1 120.0200517 532.790560
22507 22506 22508 1 119.8800511 375.723200
22499 22508 22506 1 120.0200517 532.790560
22499 22508 22509 1 119.8800511 375.723200
22506 22508 22509 1 119.8800511 375.723200
22510 22511 22512 1 119.8800511 375.723200
22510 22511 22520 1 119.8800511 375.723200
22512 22511 22520 1 120.0200517 532.790560
22511 22512 22513 1 121.3800518 83.010560
22511 22512 22514 1 120.0200517 532.790560
22513 22512 22514 1 121.3800518 83.010560
3628 22513 5860 1 109.50000 418.400000
3628 22513 10356 1 109.50000 418.400000
3628 22513 22512 1 103.70004 836.800000
5860 22513 10356 1 109.50000 418.400000
5860 22513 22512 1 103.70004 836.800000
10356 22513 22512 1 103.70004 836.800000
22512 22514 22515 1 119.8800511 375.723200
22512 22514 22516 1 120.0200517 532.790560
22515 22514 22516 1 119.8800511 375.723200
22514 22516 22517 1 119.8800511 375.723200
22514 22516 22518 1 120.0200517 532.790560
22517 22516 22518 1 119.8800511 375.723200
22516 22518 22519 1 119.8800511 375.723200
22516 22518 22520 1 120.0200517 532.790560
22519 22518 22520 1 119.8800511 375.723200
22511 22520 22518 1 120.0200517 532.790560
22511 22520 22521 1 119.8800511 375.723200
22518 22520 22521 1 119.8800511 375.723200
22522 22523 22524 1 119.8800511 375.723200
22522 22523 22532 1 119.8800511 375.723200
22524 22523 22532 1 120.0200517 532.790560
22523 22524 22525 1 121.3800518 83.010560
22523 22524 22526 1 120.0200517 532.790560
22525 22524 22526 1 121.3800518 83.010560
5041 22525 7687 1 109.50000 418.400000
5041 22525 7688 1 109.50000 418.400000
5041 22525 22524 1 103.70004 836.800000
7687 22525 7688 1 109.50000 418.400000
7687 22525 22524 1 103.70004 836.800000
7688 22525 22524 1 103.70004 836.800000
22524 22526 22527 1 119.8800511 375.723200
22524 22526 22528 1 120.0200517 532.790560
22527 22526 22528 1 119.8800511 375.723200
22526 22528 22529 1 119.8800511 375.723200
22526 22528 22530 1 120.0200517 532.790560
22529 22528 22530 1 119.8800511 375.723200
22528 22530 22531 1 119.8800511 375.723200
22528 22530 22532 1 120.0200517 532.790560
22531 22530 22532 1 119.8800511 375.723200
22523 22532 22530 1 120.0200517 532.790560
22523 22532 22533 1 119.8800511 375.723200
22530 22532 22533 1 119.8800511 375.723200
22534 22535 22536 1 119.8800511 375.723200
22534 22535 22544 1 119.8800511 375.723200
22536 22535 22544 1 120.0200517 532.790560
22535 22536 22537 1 121.3800518 83.010560
22535 22536 22538 1 120.0200517 532.790560
22537 22536 22538 1 121.3800518 83.010560
10829 22537 10957 1 109.50000 418.400000
10829 22537 11205 1 109.50000 418.400000
10829 22537 22536 1 103.70004 836.800000
10957 22537 11205 1 109.50000 418.400000
10957 22537 22536 1 103.70004 836.800000
11205 22537 22536 1 103.70004 836.800000
22536 22538 22539 1 119.8800511 375.723200
22536 22538 22540 1 120.0200517 532.790560
22539 22538 22540 1 119.8800511 375.723200
22538 22540 22541 1 119.8800511 375.723200
22538 22540 22542 1 120.0200517 532.790560
22541 22540 22542 1 119.8800511 375.723200
22540 22542 22543 1 119.8800511 375.723200
22540 22542 22544 1 120.0200517 532.790560
22543 22542 22544 1 119.8800511 375.723200
22535 22544 22542 1 120.0200517 532.790560
22535 22544 22545 1 119.8800511 375.723200
22542 22544 22545 1 119.8800511 375.723200
22546 22547 22548 1 119.8800511 375.723200
22546 22547 22556 1 119.8800511 375.723200
22548 22547 22556 1 120.0200517 532.790560
22547 22548 22549 1 121.3800518 83.010560
22547 22548 22550 1 120.0200517 532.790560
22549 22548 22550 1 121.3800518 83.010560
5762 22549 6382 1 109.50000 418.400000
5762 22549 11215 1 109.50000 418.400000
5762 22549 22548 1 103.70004 836.800000
6382 22549 11215 1 109.50000 418.400000
6382 22549 22548 1 103.70004 836.800000
11215 22549 22548 1 103.70004 836.800000
22548 22550 22551 1 119.8800511 375.723200
22548 22550 22552 1 120.0200517 532.790560
22551 22550 22552 1 119.8800511 375.723200
22550 22552 22553 1 119.8800511 375.723200
22550 22552 22554 1 120.0200517 532.790560
22553 22552 22554 1 119.8800511 375.723200
22552 22554 22555 1 119.8800511 375.723200
22552 22554 22556 1 120.0200517 532.790560
22555 22554 22556 1 119.8800511 375.723200
22547 22556 22554 1 120.0200517 532.790560
22547 22556 22557 1 119.8800511 375.723200
22554 22556 22557 1 119.8800511 375.723200
22558 22559 22560 1 119.8800511 375.723200
22558 22559 22568 1 119.8800511 375.723200
22560 22559 22568 1 120.0200517 532.790560
22559 22560 22561 1 121.3800518 83.010560
22559 22560 22562 1 120.0200517 532.790560
22561 22560 22562 1 121.3800518 83.010560
6262 22561 6263 1 109.50000 418.400000
6262 22561 6264 1 109.50000 418.400000
6262 22561 22560 1 103.70004 836.800000
6263 22561 6264 1 109.50000 418.400000
6263 22561 22560 1 103.70004 836.800000
6264 22561 22560 1 103.70004 836.800000
22560 22562 22563 1 119.8800511 375.723200
22560 22562 22564 1 120.0200517 532.790560
22563 22562 22564 1 119.8800511 375.723200
22562 22564 22565 1 119.8800511 375.723200
22562 22564 22566 1 120.0200517 532.790560
22565 22564 22566 1 119.8800511 375.723200
22564 22566 22567 1 119.8800511 375.723200
22564 22566 22568 1 120.0200517 532.790560
22567 22566 22568 1 119.8800511 375.723200
22559 22568 22566 1 120.0200517 532.790560
22559 22568 22569 1 119.8800511 375.723200
22566 22568 22569 1 119.8800511 375.723200
22570 22571 22572 1 119.8800511 375.723200
22570 22571 22580 1 119.8800511 375.723200
22572 22571 22580 1 120.0200517 532.790560
22571 22572 22573 1 121.3800518 83.010560
22571 22572 22574 1 120.0200517 532.790560
22573 22572 22574 1 121.3800518 83.010560
4510 22573 7457 1 109.50000 418.400000
4510 22573 10758 1 109.50000 418.400000
4510 22573 22572 1 103.70004 836.800000
7457 22573 10758 1 109.50000 418.400000
7457 22573 22572 1 103.70004 836.800000
10758 22573 22572 1 103.70004 836.800000
22572 22574 22575 1 119.8800511 375.723200
22572 22574 22576 1 120.0200517 532.790560
22575 22574 22576 1 119.8800511 375.723200
22574 22576 22577 1 119.8800511 375.723200
22574 22576 22578 1 120.0200517 532.790560
22577 22576 22578 1 119.8800511 375.723200
22576 22578 22579 1 119.8800511 375.723200
22576 22578 22580 1 120.0200517 532.790560
22579 22578 22580 1 119.8800511 375.723200
22571 22580 22578 1 120.0200517 532.790560
22571 22580 22581 1 119.8800511 375.723200
22578 22580 22581 1 119.8800511 375.723200
22582 22583 22584 1 119.8800511 375.723200
22582 22583 22592 1 119.8800511 375.723200
22584 22583 22592 1 120.0200517 532.790560
22583 22584 22585 1 121.3800518 83.010560
22583 22584 22586 1 120.0200517 532.790560
22585 22584 22586 1 121.3800518 83.010560
377 22585 1381 1 109.50000 418.400000
377 22585 2295 1 109.50000 418.400000
377 22585 22584 1 103.70004 836.800000
1381 22585 2295 1 109.50000 418.400000
1381 22585 22584 1 103.70004 836.800000
2295 22585 22584 1 103.70004 836.800000
22584 22586 22587 1 119.8800511 375.723200
22584 22586 22588 1 120.0200517 532.790560
22587 22586 22588 1 119.8800511 375.723200
22586 22588 22589 1 119.8800511 375.723200
22586 22588 22590 1 120.0200517 532.790560
22589 22588 22590 1 119.8800511 375.723200
22588 22590 22591 1 119.8800511 375.723200
22588 22590 22592 1 120.0200517 532.790560
22591 22590 22592 1 119.8800511 375.723200
22583 22592 22590 1 120.0200517 532.790560
22583 22592 22593 1 119.8800511 375.723200
22590 22592 22593 1 119.8800511 375.723200
22594 22595 22596 1 119.8800511 375.723200
22594 22595 22604 1 119.8800511 375.723200
22596 22595 22604 1 120.0200517 532.790560
22595 22596 22597 1 121.3800518 83.010560
22595 22596 22598 1 120.0200517 532.790560
22597 22596 22598 1 121.3800518 83.010560
2483 22597 2484 1 109.50000 418.400000
2483 22597 2485 1 109.50000 418.400000
2483 22597 22596 1 103.70004 836.800000
2484 22597 2485 1 109.50000 418.400000
2484 22597 22596 1 103.70004 836.800000
2485 22597 22596 1 103.70004 836.800000
22596 22598 22599 1 119.8800511 375.723200
22596 22598 22600 1 120.0200517 532.790560
22599 22598 22600 1 119.8800511 375.723200
22598 22600 22601 1 119.8800511 375.723200
22598 22600 22602 1 120.0200517 532.790560
22601 22600 22602 1 119.8800511 375.723200
22600 22602 22603 1 119.8800511 375.723200
22600 22602 22604 1 120.0200517 532.790560
22603 22602 22604 1 119.8800511 375.723200
22595 22604 22602 1 120.0200517 532.790560
22595 22604 22605 1 119.8800511 375.723200
22602 22604 22605 1 119.8800511 375.723200
22606 22607 22608 1 119.8800511 375.723200
22606 22607 22616 1 119.8800511 375.723200
22608 22607 22616 1 120.0200517 532.790560
22607 22608 22609 1 121.3800518 83.010560
22607 22608 22610 1 120.0200517 532.790560
22609 22608 22610 1 121.3800518 83.010560
3627 22609 4990 1 109.50000 418.400000
3627 22609 4991 1 109.50000 418.400000
3627 22609 22608 1 103.70004 836.800000
4990 22609 4991 1 109.50000 418.400000
4990 22609 22608 1 103.70004 836.800000
4991 22609 22608 1 103.70004 836.800000
22608 22610 22611 1 119.8800511 375.723200
22608 22610 22612 1 120.0200517 532.790560
22611 22610 22612 1 119.8800511 375.723200
22610 22612 22613 1 119.8800511 375.723200
22610 22612 22614 1 120.0200517 532.790560
22613 22612 22614 1 119.8800511 375.723200
22612 22614 22615 1 119.8800511 375.723200
22612 22614 22616 1 120.0200517 532.790560
22615 22614 22616 1 119.8800511 375.723200
22607 22616 22614 1 120.0200517 532.790560
22607 22616 22617 1 119.8800511 375.723200
22614 22616 22617 1 119.8800511 375.723200
22618 22619 22620 1 119.8800511 375.723200
22618 22619 22628 1 119.8800511 375.723200
22620 22619 22628 1 120.0200517 532.790560
22619 22620 22621 1 121.3800518 83.010560
22619 22620 22622 1 120.0200517 532.790560
22621 22620 22622 1 121.3800518 83.010560
2419 22621 3922 1 109.50000 418.400000
2419 22621 7908 1 109.50000 418.400000
2419 22621 22620 1 103.70004 836.800000
3922 22621 7908 1 109.50000 418.400000
3922 22621 22620 1 103.70004 836.800000
7908 22621 22620 1 103.70004 836.800000
22620 22622 22623 1 119.8800511 375.723200
22620 22622 22624 1 120.0200517 532.790560
22623 22622 22624 1 119.8800511 375.723200
22622 22624 22625 1 119.8800511 375.723200
22622 22624 22626 1 120.0200517 532.790560
22625 22624 22626 1 119.8800511 375.723200
22624 22626 22627 1 119.8800511 375.723200
22624 22626 22628 1 120.0200517 532.790560
22627 22626 22628 1 119.8800511 375.723200
22619 22628 22626 1 120.0200517 532.790560
22619 22628 22629 1 119.8800511 375.723200
22626 22628 22629 1 119.8800511 375.723200
22630 22631 22632 1 119.8800511 375.723200
22630 22631 22640 1 119.8800511 375.723200
22632 22631 22640 1 120.0200517 532.790560
22631 22632 22633 1 121.3800518 83.010560
22631 22632 22634 1 120.0200517 532.790560
22633 22632 22634 1 121.3800518 83.010560
10437 22633 10873 1 109.50000 418.400000
10437 22633 10874 1 109.50000 418.400000
10437 22633 22632 1 103.70004 836.800000
10873 22633 10874 1 109.50000 418.400000
10873 22633 22632 1 103.70004 836.800000
10874 22633 22632 1 103.70004 836.800000
22632 22634 22635 1 119.8800511 375.723200
22632 22634 22636 1 120.0200517 532.790560
22635 22634 22636 1 119.8800511 375.723200
22634 22636 22637 1 119.8800511 375.723200
22634 22636 22638 1 120.0200517 532.790560
22637 22636 22638 1 119.8800511 375.723200
22636 22638 22639 1 119.8800511 375.723200
22636 22638 22640 1 120.0200517 532.790560
22639 22638 22640 1 119.8800511 375.723200
22631 22640 22638 1 120.0200517 532.790560
22631 22640 22641 1 119.8800511 375.723200
22638 22640 22641 1 119.8800511 375.723200
22642 22643 22644 1 119.8800511 375.723200
22642 22643 22652 1 119.8800511 375.723200
22644 22643 22652 1 120.0200517 532.790560
22643 22644 22645 1 121.3800518 83.010560
22643 22644 22646 1 120.0200517 532.790560
22645 22644 22646 1 121.3800518 83.010560
3148 22645 3149 1 109.50000 418.400000
3148 22645 11145 1 109.50000 418.400000
3148 22645 22644 1 103.70004 836.800000
3149 22645 11145 1 109.50000 418.400000
3149 22645 22644 1 103.70004 836.800000
11145 22645 22644 1 103.70004 836.800000
22644 22646 22647 1 119.8800511 375.723200
22644 22646 22648 1 120.0200517 532.790560
22647 22646 22648 1 119.8800511 375.723200
22646 22648 22649 1 119.8800511 375.723200
22646 22648 22650 1 120.0200517 532.790560
22649 22648 22650 1 119.8800511 375.723200
22648 22650 22651 1 119.8800511 375.723200
22648 22650 22652 1 120.0200517 532.790560
22651 22650 22652 1 119.8800511 375.723200
22643 22652 22650 1 120.0200517 532.790560
22643 22652 22653 1 119.8800511 375.723200
22650 22652 22653 1 119.8800511 375.723200
22654 22655 22656 1 119.8800511 375.723200
22654 22655 22664 1 119.8800511 375.723200
22656 22655 22664 1 120.0200517 532.790560
22655 22656 22657 1 121.3800518 83.010560
22655 22656 22658 1 120.0200517 532.790560
22657 22656 22658 1 121.3800518 83.010560
2163 22657 2164 1 109.50000 418.400000
2163 22657 6038 1 109.50000 418.400000
2163 22657 22656 1 103.70004 836.800000
2164 22657 6038 1 109.50000 418.400000
2164 22657 22656 1 103.70004 836.800000
6038 22657 22656 1 103.70004 836.800000
22656 22658 22659 1 119.8800511 375.723200
22656 22658 22660 1 120.0200517 532.790560
22659 22658 22660 1 119.8800511 375.723200
22658 22660 22661 1 119.8800511 375.723200
22658 22660 22662 1 120.0200517 532.790560
22661 22660 22662 1 119.8800511 375.723200
22660 22662 22663 1 119.8800511 375.723200
22660 22662 22664 1 120.0200517 532.790560
22663 22662 22664 1 119.8800511 375.723200
22655 22664 22662 1 120.0200517 532.790560
22655 22664 22665 1 119.8800511 375.723200
22662 22664 22665 1 119.8800511 375.723200
22666 22667 22668 1 119.8800511 375.723200
22666 22667 22676 1 119.8800511 375.723200
22668 22667 22676 1 120.0200517 532.790560
22667 22668 22669 1 121.3800518 83.010560
22667 22668 22670 1 120.0200517 532.790560
22669 22668 22670 1 121.3800518 83.010560
11 22669 3424 1 109.50000 418.400000
11 22669 3425 1 109.50000 418.400000
11 22669 22668 1 103.70004 836.800000
3424 22669 3425 1 109.50000 418.400000
3424 22669 22668 1 103.70004 836.800000
3425 22669 22668 1 103.70004 836.800000
22668 22670 22671 1 119.8800511 375.723200
22668 22670 22672 1 120.0200517 532.790560
22671 22670 22672 1 119.8800511 375.723200
22670 22672 22673 1 119.8800511 375.723200
22670 22672 22674 1 120.0200517 532.790560
22673 22672 22674 1 119.8800511 375.723200
22672 22674 22675 1 119.8800511 375.723200
22672 22674 22676 1 120.0200517 532.790560
22675 22674 22676 1 119.8800511 375.723200
22667 22676 22674 1 120.0200517 532.790560
22667 22676 22677 1 119.8800511 375.723200
22674 22676 22677 1 119.8800511 375.723200
22678 22679 22680 1 119.8800511 375.723200
22678 22679 22688 1 119.8800511 375.723200
22680 22679 22688 1 120.0200517 532.790560
22679 22680 22681 1 121.3800518 83.010560
22679 22680 22682 1 120.0200517 532.790560
22681 22680 22682 1 121.3800518 83.010560
2431 22681 5578 1 109.50000 418.400000
2431 22681 11146 1 109.50000 418.400000
2431 22681 22680 1 103.70004 836.800000
5578 22681 11146 1 109.50000 418.400000
5578 22681 22680 1 103.70004 836.800000
11146 22681 22680 1 103.70004 836.800000
22680 22682 22683 1 119.8800511 375.723200
22680 22682 22684 1 120.0200517 532.790560
22683 22682 22684 1 119.8800511 375.723200
22682 22684 22685 1 119.8800511 375.723200
22682 22684 22686 1 120.0200517 532.790560
22685 22684 22686 1 119.8800511 375.723200
22684 22686 22687 1 119.8800511 375.723200
22684 22686 22688 1 120.0200517 532.790560
22687 22686 22688 1 119.8800511 375.723200
22679 22688 22686 1 120.0200517 532.790560
22679 22688 22689 1 119.8800511 375.723200
22686 22688 22689 1 119.8800511 375.723200
22690 22691 22692 1 119.8800511 375.723200
22690 22691 22700 1 119.8800511 375.723200
22692 22691 22700 1 120.0200517 532.790560
22691 22692 22693 1 121.3800518 83.010560
22691 22692 22694 1 120.0200517 532.790560
22693 22692 22694 1 121.3800518 83.010560
559 22693 560 1 109.50000 418.400000
559 22693 561 1 109.50000 418.400000
559 22693 22692 1 103.70004 836.800000
560 22693 561 1 109.50000 418.400000
560 22693 22692 1 103.70004 836.800000
561 22693 22692 1 103.70004 836.800000
22692 22694 22695 1 119.8800511 375.723200
22692 22694 22696 1 120.0200517 532.790560
22695 22694 22696 1 119.8800511 375.723200
22694 22696 22697 1 119.8800511 375.723200
22694 22696 22698 1 120.0200517 532.790560
22697 22696 22698 1 119.8800511 375.723200
22696 22698 22699 1 119.8800511 375.723200
22696 22698 22700 1 120.0200517 532.790560
22699 22698 22700 1 119.8800511 375.723200
22691 22700 22698 1 120.0200517 532.790560
22691 22700 22701 1 119.8800511 375.723200
22698 22700 22701 1 119.8800511 375.723200
22702 22703 22704 1 119.8800511 375.723200
22702 22703 22712 1 119.8800511 375.723200
22704 22703 22712 1 120.0200517 532.790560
22703 22704 22705 1 121.3800518 83.010560
22703 22704 22706 1 120.0200517 532.790560
22705 22704 22706 1 121.3800518 83.010560
3207 22705 9561 1 109.50000 418.400000
3207 22705 11146 1 109.50000 418.400000
3207 22705 22704 1 103.70004 836.800000
9561 22705 11146 1 109.50000 418.400000
9561 22705 22704 1 103.70004 836.800000
11146 22705 22704 1 103.70004 836.800000
22704 22706 22707 1 119.8800511 375.723200
22704 22706 22708 1 120.0200517 532.790560
22707 22706 22708 1 119.8800511 375.723200
22706 22708 22709 1 119.8800511 375.723200
22706 22708 22710 1 120.0200517 532.790560
22709 22708 22710 1 119.8800511 375.723200
22708 22710 22711 1 119.8800511 375.723200
22708 22710 22712 1 120.0200517 532.790560
22711 22710 22712 1 119.8800511 375.723200
22703 22712 22710 1 120.0200517 532.790560
22703 22712 22713 1 119.8800511 375.723200
22710 22712 22713 1 119.8800511 375.723200
22714 22715 22716 1 119.8800511 375.723200
22714 22715 22724 1 119.8800511 375.723200
22716 22715 22724 1 120.0200517 532.790560
22715 22716 22717 1 121.3800518 83.010560
22715 22716 22718 1 120.0200517 532.790560
22717 22716 22718 1 121.3800518 83.010560
3834 22717 9092 1 109.50000 418.400000
3834 22717 10141 1 109.50000 418.400000
3834 22717 22716 1 103.70004 836.800000
9092 22717 10141 1 109.50000 418.400000
9092 22717 22716 1 103.70004 836.800000
10141 22717 22716 1 103.70004 836.800000
22716 22718 22719 1 119.8800511 375.723200
22716 22718 22720 1 120.0200517 532.790560
22719 22718 22720 1 119.8800511 375.723200
22718 22720 22721 1 119.8800511 375.723200
22718 22720 22722 1 120.0200517 532.790560
22721 22720 22722 1 119.8800511 375.723200
22720 22722 22723 1 119.8800511 375.723200
22720 22722 22724 1 120.0200517 532.790560
22723 22722 22724 1 119.8800511 375.723200
22715 22724 22722 1 120.0200517 532.790560
22715 22724 22725 1 119.8800511 375.723200
22722 22724 22725 1 119.8800511 375.723200
22726 22727 22728 1 119.8800511 375.723200
22726 22727 22736 1 119.8800511 375.723200
22728 22727 22736 1 120.0200517 532.790560
22727 22728 22729 1 121.3800518 83.010560
22727 22728 22730 1 120.0200517 532.790560
22729 22728 22730 1 121.3800518 83.010560
3549 22729 7805 1 109.50000 418.400000
3549 22729 7806 1 109.50000 418.400000
3549 22729 22728 1 103.70004 836.800000
7805 22729 7806 1 109.50000 418.400000
7805 22729 22728 1 103.70004 836.800000
7806 22729 22728 1 103.70004 836.800000
22728 22730 22731 1 119.8800511 375.723200
22728 22730 22732 1 120.0200517 532.790560
22731 22730 22732 1 119.8800511 375.723200
22730 22732 22733 1 119.8800511 375.723200
22730 22732 22734 1 120.0200517 532.790560
22733 22732 22734 1 119.8800511 375.723200
22732 22734 22735 1 119.8800511 375.723200
22732 22734 22736 1 120.0200517 532.790560
22735 22734 22736 1 119.8800511 375.723200
22727 22736 22734 1 120.0200517 532.790560
22727 22736 22737 1 119.8800511 375.723200
22734 22736 22737 1 119.8800511 375.723200
22738 22739 22740 1 119.8800511 375.723200
22738 22739 22748 1 119.8800511 375.723200
22740 22739 22748 1 120.0200517 532.790560
22739 22740 22741 1 121.3800518 83.010560
22739 22740 22742 1 120.0200517 532.790560
22741 22740 22742 1 121.3800518 83.010560
1876 22741 1877 1 109.50000 418.400000
1876 22741 1878 1 109.50000 418.400000
1876 22741 22740 1 103.70004 836.800000
1877 22741 1878 1 109.50000 418.400000
1877 22741 22740 1 103.70004 836.800000
1878 22741 22740 1 103.70004 836.800000
22740 22742 22743 1 119.8800511 375.723200
22740 22742 22744 1 120.0200517 532.790560
22743 22742 22744 1 119.8800511 375.723200
22742 22744 22745 1 119.8800511 375.723200
22742 22744 22746 1 120.0200517 532.790560
22745 22744 22746 1 119.8800511 375.723200
22744 22746 22747 1 119.8800511 375.723200
22744 22746 22748 1 120.0200517 532.790560
22747 22746 22748 1 119.8800511 375.723200
22739 22748 22746 1 120.0200517 532.790560
22739 22748 22749 1 119.8800511 375.723200
22746 22748 22749 1 119.8800511 375.723200
22750 22751 22752 1 119.8800511 375.723200
22750 22751 22760 1 119.8800511 375.723200
22752 22751 22760 1 120.0200517 532.790560
22751 22752 22753 1 121.3800518 83.010560
22751 22752 22754 1 120.0200517 532.790560
22753 22752 22754 1 121.3800518 83.010560
3223 22753 9139 1 109.50000 418.400000
3223 22753 9140 1 109.50000 418.400000
3223 22753 22752 1 103.70004 836.800000
9139 22753 9140 1 109.50000 418.400000
9139 22753 22752 1 103.70004 836.800000
9140 22753 22752 1 103.70004 836.800000
22752 22754 22755 1 119.8800511 375.723200
22752 22754 22756 1 120.0200517 532.790560
22755 22754 22756 1 119.8800511 375.723200
22754 22756 22757 1 119.8800511 375.723200
22754 22756 22758 1 120.0200517 532.790560
22757 22756 22758 1 119.8800511 375.723200
22756 22758 22759 1 119.8800511 375.723200
22756 22758 22760 1 120.0200517 532.790560
22759 22758 22760 1 119.8800511 375.723200
22751 22760 22758 1 120.0200517 532.790560
22751 22760 22761 1 119.8800511 375.723200
22758 22760 22761 1 119.8800511 375.723200
22762 22763 22764 1 119.8800511 375.723200
22762 22763 22772 1 119.8800511 375.723200
22764 22763 22772 1 120.0200517 532.790560
22763 22764 22765 1 121.3800518 83.010560
22763 22764 22766 1 120.0200517 532.790560
22765 22764 22766 1 121.3800518 83.010560
5527 22765 6000 1 109.50000 418.400000
5527 22765 6001 1 109.50000 418.400000
5527 22765 22764 1 103.70004 836.800000
6000 22765 6001 1 109.50000 418.400000
6000 22765 22764 1 103.70004 836.800000
6001 22765 22764 1 103.70004 836.800000
22764 22766 22767 1 119.8800511 375.723200
22764 22766 22768 1 120.0200517 532.790560
22767 22766 22768 1 119.8800511 375.723200
22766 22768 22769 1 119.8800511 375.723200
22766 22768 22770 1 120.0200517 532.790560
22769 22768 22770 1 119.8800511 375.723200
22768 22770 22771 1 119.8800511 375.723200
22768 22770 22772 1 120.0200517 532.790560
22771 22770 22772 1 119.8800511 375.723200
22763 22772 22770 1 120.0200517 532.790560
22763 22772 22773 1 119.8800511 375.723200
22770 22772 22773 1 119.8800511 375.723200
22774 22775 22776 1 119.8800511 375.723200
22774 22775 22784 1 119.8800511 375.723200
22776 22775 22784 1 120.0200517 532.790560
22775 22776 22777 1 121.3800518 83.010560
22775 22776 22778 1 120.0200517 532.790560
22777 22776 22778 1 121.3800518 83.010560
7218 22777 8371 1 109.50000 418.400000
7218 22777 8813 1 109.50000 418.400000
7218 22777 22776 1 103.70004 836.800000
8371 22777 8813 1 109.50000 418.400000
8371 22777 22776 1 103.70004 836.800000
8813 22777 22776 1 103.70004 836.800000
22776 22778 22779 1 119.8800511 375.723200
22776 22778 22780 1 120.0200517 532.790560
22779 22778 22780 1 119.8800511 375.723200
22778 22780 22781 1 119.8800511 375.723200
22778 22780 22782 1 120.0200517 532.790560
22781 22780 22782 1 119.8800511 375.723200
22780 22782 22783 1 119.8800511 375.723200
22780 22782 22784 1 120.0200517 532.790560
22783 22782 22784 1 119.8800511 375.723200
22775 22784 22782 1 120.0200517 532.790560
22775 22784 22785 1 119.8800511 375.723200
22782 22784 22785 1 119.8800511 375.723200
22786 22787 22788 1 119.8800511 375.723200
22786 22787 22796 1 119.8800511 375.723200
22788 22787 22796 1 120.0200517 532.790560
22787 22788 22789 1 121.3800518 83.010560
22787 22788 22790 1 120.0200517 532.790560
22789 22788 22790 1 121.3800518 83.010560
1863 22789 1864 1 109.50000 418.400000
1863 22789 1865 1 109.50000 418.400000
1863 22789 22788 1 103.70004 836.800000
1864 22789 1865 1 109.50000 418.400000
1864 22789 22788 1 103.70004 836.800000
1865 22789 22788 1 103.70004 836.800000
22788 22790 22791 1 119.8800511 375.723200
22788 22790 22792 1 120.0200517 532.790560
22791 22790 22792 1 119.8800511 375.723200
22790 22792 22793 1 119.8800511 375.723200
22790 22792 22794 1 120.0200517 532.790560
22793 22792 22794 1 119.8800511 375.723200
22792 22794 22795 1 119.8800511 375.723200
22792 22794 22796 1 120.0200517 532.790560
22795 22794 22796 1 119.8800511 375.723200
22787 22796 22794 1 120.0200517 532.790560
22787 22796 22797 1 119.8800511 375.723200
22794 22796 22797 1 119.8800511 375.723200
22798 22799 22800 1 119.8800511 375.723200
22798 22799 22808 1 119.8800511 375.723200
22800 22799 22808 1 120.0200517 532.790560
22799 22800 22801 1 121.3800518 83.010560
22799 22800 22802 1 120.0200517 532.790560
22801 22800 22802 1 121.3800518 83.010560
5093 22801 5322 1 109.50000 418.400000
5093 22801 7052 1 109.50000 418.400000
5093 22801 22800 1 103.70004 836.800000
5322 22801 7052 1 109.50000 418.400000
5322 22801 22800 1 103.70004 836.800000
7052 22801 22800 1 103.70004 836.800000
22800 22802 22803 1 119.8800511 375.723200
22800 22802 22804 1 120.0200517 532.790560
22803 22802 22804 1 119.8800511 375.723200
22802 22804 22805 1 119.8800511 375.723200
22802 22804 22806 1 120.0200517 532.790560
22805 22804 22806 1 119.8800511 375.723200
22804 22806 22807 1 119.8800511 375.723200
22804 22806 22808 1 120.0200517 532.790560
22807 22806 22808 1 119.8800511 375.723200
22799 22808 22806 1 120.0200517 532.790560
22799 22808 22809 1 119.8800511 375.723200
22806 22808 22809 1 119.8800511 375.723200
22810 22811 22812 1 119.8800511 375.723200
22810 22811 22820 1 119.8800511 375.723200
22812 22811 22820 1 120.0200517 532.790560
22811 22812 22813 1 121.3800518 83.010560
22811 22812 22814 1 120.0200517 532.790560
22813 22812 22814 1 121.3800518 83.010560
8095 22813 10083 1 109.50000 418.400000
8095 22813 11213 1 109.50000 418.400000
8095 22813 22812 1 103.70004 836.800000
10083 22813 11213 1 109.50000 418.400000
10083 22813 22812 1 103.70004 836.800000
11213 22813 22812 1 103.70004 836.800000
22812 22814 22815 1 119.8800511 375.723200
22812 22814 22816 1 120.0200517 532.790560
22815 22814 22816 1 119.8800511 375.723200
22814 22816 22817 1 119.8800511 375.723200
22814 22816 22818 1 120.0200517 532.790560
22817 22816 22818 1 119.8800511 375.723200
22816 22818 22819 1 119.8800511 375.723200
22816 22818 22820 1 120.0200517 532.790560
22819 22818 22820 1 119.8800511 375.723200
22811 22820 22818 1 120.0200517 532.790560
22811 22820 22821 1 119.8800511 375.723200
22818 22820 22821 1 119.8800511 375.723200
22822 22823 22824 1 119.8800511 375.723200
22822 22823 22832 1 119.8800511 375.723200
22824 22823 22832 1 120.0200517 532.790560
22823 22824 22825 1 121.3800518 83.010560
22823 22824 22826 1 120.0200517 532.790560
22825 22824 22826 1 121.3800518 83.010560
178 22825 179 1 109.50000 418.400000
178 22825 11228 1 109.50000 418.400000
178 22825 22824 1 103.70004 836.800000
179 22825 11228 1 109.50000 418.400000
179 22825 22824 1 103.70004 836.800000
11228 22825 22824 1 103.70004 836.800000
22824 22826 22827 1 119.8800511 375.723200
22824 22826 22828 1 120.0200517 532.790560
22827 22826 22828 1 119.8800511 375.723200
22826 22828 22829 1 119.8800511 375.723200
22826 22828 22830 1 120.0200517 532.790560
22829 22828 22830 1 119.8800511 375.723200
22828 22830 22831 1 119.8800511 375.723200
22828 22830 22832 1 120.0200517 532.790560
22831 22830 22832 1 119.8800511 375.723200
22823 22832 22830 1 120.0200517 532.790560
22823 22832 22833 1 119.8800511 375.723200
22830 22832 22833 1 119.8800511 375.723200
22834 22835 22836 1 119.8800511 375.723200
22834 22835 22844 1 119.8800511 375.723200
22836 22835 22844 1 120.0200517 532.790560
22835 22836 22837 1 121.3800518 83.010560
22835 22836 22838 1 120.0200517 532.790560
22837 22836 22838 1 121.3800518 83.010560
4032 22837 4817 1 109.50000 418.400000
4032 22837 11246 1 109.50000 418.400000
4032 22837 22836 1 103.70004 836.800000
4817 22837 11246 1 109.50000 418.400000
4817 22837 22836 1 103.70004 836.800000
11246 22837 22836 1 103.70004 836.800000
22836 22838 22839 1 119.8800511 375.723200
22836 22838 22840 1 120.0200517 532.790560
22839 22838 22840 1 119.8800511 375.723200
22838 22840 22841 1 119.8800511 375.723200
22838 22840 22842 1 120.0200517 532.790560
22841 22840 22842 1 119.8800511 375.723200
22840 22842 22843 1 119.8800511 375.723200
22840 22842 22844 1 120.0200517 532.790560
22843 22842 22844 1 119.8800511 375.723200
22835 22844 22842 1 120.0200517 532.790560
22835 22844 22845 1 119.8800511 375.723200
22842 22844 22845 1 119.8800511 375.723200
22846 22847 22848 1 119.8800511 375.723200
22846 22847 22856 1 119.8800511 375.723200
22848 22847 22856 1 120.0200517 532.790560
22847 22848 22849 1 121.3800518 83.010560
22847 22848 22850 1 120.0200517 532.790560
22849 22848 22850 1 121.3800518 83.010560
7711 22849 7712 1 109.50000 418.400000
7711 22849 9111 1 109.50000 418.400000
7711 22849 22848 1 103.70004 836.800000
7712 22849 9111 1 109.50000 418.400000
7712 22849 22848 1 103.70004 836.800000
9111 22849 22848 1 103.70004 836.800000
22848 22850 22851 1 119.8800511 375.723200
22848 22850 22852 1 120.0200517 532.790560
22851 22850 22852 1 119.8800511 375.723200
22850 22852 22853 1 119.8800511 375.723200
22850 22852 22854 1 120.0200517 532.790560
22853 22852 22854 1 119.8800511 375.723200
22852 22854 22855 1 119.8800511 375.723200
22852 22854 22856 1 120.0200517 532.790560
22855 22854 22856 1 119.8800511 375.723200
22847 22856 22854 1 120.0200517 532.790560
22847 22856 22857 1 119.8800511 375.723200
22854 22856 22857 1 119.8800511 375.723200
22858 22859 22860 1 119.8800511 375.723200
22858 22859 22868 1 119.8800511 375.723200
22860 22859 22868 1 120.0200517 532.790560
22859 22860 22861 1 121.3800518 83.010560
22859 22860 22862 1 120.0200517 532.790560
22861 22860 22862 1 121.3800518 83.010560
6486 22861 6487 1 109.50000 418.400000
6486 22861 7783 1 109.50000 418.400000
6486 22861 22860 1 103.70004 836.800000
6487 22861 7783 1 109.50000 418.400000
6487 22861 22860 1 103.70004 836.800000
7783 22861 22860 1 103.70004 836.800000
22860 22862 22863 1 119.8800511 375.723200
22860 22862 22864 1 120.0200517 532.790560
22863 22862 22864 1 119.8800511 375.723200
22862 22864 22865 1 119.8800511 375.723200
22862 22864 22866 1 120.0200517 532.790560
22865 22864 22866 1 119.8800511 375.723200
22864 22866 22867 1 119.8800511 375.723200
22864 22866 22868 1 120.0200517 532.790560
22867 22866 22868 1 119.8800511 375.723200
22859 22868 22866 1 120.0200517 532.790560
22859 22868 22869 1 119.8800511 375.723200
22866 22868 22869 1 119.8800511 375.723200
22870 22871 22872 1 119.8800511 375.723200
22870 22871 22880 1 119.8800511 375.723200
22872 22871 22880 1 120.0200517 532.790560
22871 22872 22873 1 121.3800518 83.010560
22871 22872 22874 1 120.0200517 532.790560
22873 22872 22874 1 121.3800518 83.010560
5892 22873 5893 1 109.50000 418.400000
5892 22873 5894 1 109.50000 418.400000
5892 22873 22872 1 103.70004 836.800000
5893 22873 5894 1 109.50000 418.400000
5893 22873 22872 1 103.70004 836.800000
5894 22873 22872 1 103.70004 836.800000
22872 22874 22875 1 119.8800511 375.723200
22872 22874 22876 1 120.0200517 532.790560
22875 22874 22876 1 119.8800511 375.723200
22874 22876 22877 1 119.8800511 375.723200
22874 22876 22878 1 120.0200517 532.790560
22877 22876 22878 1 119.8800511 375.723200
22876 22878 22879 1 119.8800511 375.723200
22876 22878 22880 1 120.0200517 532.790560
22879 22878 22880 1 119.8800511 375.723200
22871 22880 22878 1 120.0200517 532.790560
22871 22880 22881 1 119.8800511 375.723200
22878 22880 22881 1 119.8800511 375.723200
22882 22883 22884 1 119.8800511 375.723200
22882 22883 22892 1 119.8800511 375.723200
22884 22883 22892 1 120.0200517 532.790560
22883 22884 22885 1 121.3800518 83.010560
22883 22884 22886 1 120.0200517 532.790560
22885 22884 22886 1 121.3800518 83.010560
2899 22885 7932 1 109.50000 418.400000
2899 22885 7933 1 109.50000 418.400000
2899 22885 22884 1 103.70004 836.800000
7932 22885 7933 1 109.50000 418.400000
7932 22885 22884 1 103.70004 836.800000
7933 22885 22884 1 103.70004 836.800000
22884 22886 22887 1 119.8800511 375.723200
22884 22886 22888 1 120.0200517 532.790560
22887 22886 22888 1 119.8800511 375.723200
22886 22888 22889 1 119.8800511 375.723200
22886 22888 22890 1 120.0200517 532.790560
22889 22888 22890 1 119.8800511 375.723200
22888 22890 22891 1 119.8800511 375.723200
22888 22890 22892 1 120.0200517 532.790560
22891 22890 22892 1 119.8800511 375.723200
22883 22892 22890 1 120.0200517 532.790560
22883 22892 22893 1 119.8800511 375.723200
22890 22892 22893 1 119.8800511 375.723200
22894 22895 22896 1 119.8800511 375.723200
22894 22895 22904 1 119.8800511 375.723200
22896 22895 22904 1 120.0200517 532.790560
22895 22896 22897 1 121.3800518 83.010560
22895 22896 22898 1 120.0200517 532.790560
22897 22896 22898 1 121.3800518 83.010560
3492 22897 3935 1 109.50000 418.400000
3492 22897 9678 1 109.50000 418.400000
3492 22897 22896 1 103.70004 836.800000
3935 22897 9678 1 109.50000 418.400000
3935 22897 22896 1 103.70004 836.800000
9678 22897 22896 1 103.70004 836.800000
22896 22898 22899 1 119.8800511 375.723200
22896 22898 22900 1 120.0200517 532.790560
22899 22898 22900 1 119.8800511 375.723200
22898 22900 22901 1 119.8800511 375.723200
22898 22900 22902 1 120.0200517 532.790560
22901 22900 22902 1 119.8800511 375.723200
22900 22902 22903 1 119.8800511 375.723200
22900 22902 22904 1 120.0200517 532.790560
22903 22902 22904 1 119.8800511 375.723200
22895 22904 22902 1 120.0200517 532.790560
22895 22904 22905 1 119.8800511 375.723200
22902 22904 22905 1 119.8800511 375.723200
22906 22907 22908 1 119.8800511 375.723200
22906 22907 22916 1 119.8800511 375.723200
22908 22907 22916 1 120.0200517 532.790560
22907 22908 22909 1 121.3800518 83.010560
22907 22908 22910 1 120.0200517 532.790560
22909 22908 22910 1 121.3800518 83.010560
1075 22909 4446 1 109.50000 418.400000
1075 22909 10221 1 109.50000 418.400000
1075 22909 22908 1 103.70004 836.800000
4446 22909 10221 1 109.50000 418.400000
4446 22909 22908 1 103.70004 836.800000
10221 22909 22908 1 103.70004 836.800000
22908 22910 22911 1 119.8800511 375.723200
22908 22910 22912 1 120.0200517 532.790560
22911 22910 22912 1 119.8800511 375.723200
22910 22912 22913 1 119.8800511 375.723200
22910 22912 22914 1 120.0200517 532.790560
22913 22912 22914 1 119.8800511 375.723200
22912 22914 22915 1 119.8800511 375.723200
22912 22914 22916 1 120.0200517 532.790560
22915 22914 22916 1 119.8800511 375.723200
22907 22916 22914 1 120.0200517 532.790560
22907 22916 22917 1 119.8800511 375.723200
22914 22916 22917 1 119.8800511 375.723200
22918 22919 22920 1 119.8800511 375.723200
22918 22919 22928 1 119.8800511 375.723200
22920 22919 22928 1 120.0200517 532.790560
22919 22920 22921 1 121.3800518 83.010560
22919 22920 22922 1 120.0200517 532.790560
22921 22920 22922 1 121.3800518 83.010560
3740 22921 6089 1 109.50000 418.400000
3740 22921 10572 1 109.50000 418.400000
3740 22921 22920 1 103.70004 836.800000
6089 22921 10572 1 109.50000 418.400000
6089 22921 22920 1 103.70004 836.800000
10572 22921 22920 1 103.70004 836.800000
22920 22922 22923 1 119.8800511 375.723200
22920 22922 22924 1 120.0200517 532.790560
22923 22922 22924 1 119.8800511 375.723200
22922 22924 22925 1 119.8800511 375.723200
22922 22924 22926 1 120.0200517 532.790560
22925 22924 22926 1 119.8800511 375.723200
22924 22926 22927 1 119.8800511 375.723200
22924 22926 22928 1 120.0200517 532.790560
22927 22926 22928 1 119.8800511 375.723200
22919 22928 22926 1 120.0200517 532.790560
22919 22928 22929 1 119.8800511 375.723200
22926 22928 22929 1 119.8800511 375.723200
22930 22931 22932 1 119.8800511 375.723200
22930 22931 22940 1 119.8800511 375.723200
22932 22931 22940 1 120.0200517 532.790560
22931 22932 22933 1 121.3800518 83.010560
22931 22932 22934 1 120.0200517 532.790560
22933 22932 22934 1 121.3800518 83.010560
1685 22933 7198 1 109.50000 418.400000
1685 22933 10902 1 109.50000 418.400000
1685 22933 22932 1 103.70004 836.800000
7198 22933 10902 1 109.50000 418.400000
7198 22933 22932 1 103.70004 836.800000
10902 22933 22932 1 103.70004 836.800000
22932 22934 22935 1 119.8800511 375.723200
22932 22934 22936 1 120.0200517 532.790560
22935 22934 22936 1 119.8800511 375.723200
22934 22936 22937 1 119.8800511 375.723200
22934 22936 22938 1 120.0200517 532.790560
22937 22936 22938 1 119.8800511 375.723200
22936 22938 22939 1 119.8800511 375.723200
22936 22938 22940 1 120.0200517 532.790560
22939 22938 22940 1 119.8800511 375.723200
22931 22940 22938 1 120.0200517 532.790560
22931 22940 22941 1 119.8800511 375.723200
22938 22940 22941 1 119.8800511 375.723200
22942 22943 22944 1 119.8800511 375.723200
22942 22943 22952 1 119.8800511 375.723200
22944 22943 22952 1 120.0200517 532.790560
22943 22944 22945 1 121.3800518 83.010560
22943 22944 22946 1 120.0200517 532.790560
22945 22944 22946 1 121.3800518 83.010560
2493 22945 10813 1 109.50000 418.400000
2493 22945 10827 1 109.50000 418.400000
2493 22945 22944 1 103.70004 836.800000
10813 22945 10827 1 109.50000 418.400000
10813 22945 22944 1 103.70004 836.800000
10827 22945 22944 1 103.70004 836.800000
22944 22946 22947 1 119.8800511 375.723200
22944 22946 22948 1 120.0200517 532.790560
22947 22946 22948 1 119.8800511 375.723200
22946 22948 22949 1 119.8800511 375.723200
22946 22948 22950 1 120.0200517 532.790560
22949 22948 22950 1 119.8800511 375.723200
22948 22950 22951 1 119.8800511 375.723200
22948 22950 22952 1 120.0200517 532.790560
22951 22950 22952 1 119.8800511 375.723200
22943 22952 22950 1 120.0200517 532.790560
22943 22952 22953 1 119.8800511 375.723200
22950 22952 22953 1 119.8800511 375.723200
22954 22955 22956 1 119.8800511 375.723200
22954 22955 22964 1 119.8800511 375.723200
22956 22955 22964 1 120.0200517 532.790560
22955 22956 22957 1 121.3800518 83.010560
22955 22956 22958 1 120.0200517 532.790560
22957 22956 22958 1 121.3800518 83.010560
4938 22957 4939 1 109.50000 418.400000
4938 22957 10105 1 109.50000 418.400000
4938 22957 22956 1 103.70004 836.800000
4939 22957 10105 1 109.50000 418.400000
4939 22957 22956 1 103.70004 836.800000
10105 22957 22956 1 103.70004 836.800000
22956 22958 22959 1 119.8800511 375.723200
22956 22958 22960 1 120.0200517 532.790560
22959 22958 22960 1 119.8800511 375.723200
22958 22960 22961 1 119.8800511 375.723200
22958 22960 22962 1 120.0200517 532.790560
22961 22960 22962 1 119.8800511 375.723200
22960 22962 22963 1 119.8800511 375.723200
22960 22962 22964 1 120.0200517 532.790560
22963 22962 22964 1 119.8800511 375.723200
22955 22964 22962 1 120.0200517 532.790560
22955 22964 22965 1 119.8800511 375.723200
22962 22964 22965 1 119.8800511 375.723200
22966 22967 22968 1 119.8800511 375.723200
22966 22967 22976 1 119.8800511 375.723200
22968 22967 22976 1 120.0200517 532.790560
22967 22968 22969 1 121.3800518 83.010560
22967 22968 22970 1 120.0200517 532.790560
22969 22968 22970 1 121.3800518 83.010560
518 22969 519 1 109.50000 418.400000
518 22969 520 1 109.50000 418.400000
518 22969 22968 1 103.70004 836.800000
519 22969 520 1 109.50000 418.400000
519 22969 22968 1 103.70004 836.800000
520 22969 22968 1 103.70004 836.800000
22968 22970 22971 1 119.8800511 375.723200
22968 22970 22972 1 120.0200517 532.790560
22971 22970 22972 1 119.8800511 375.723200
22970 22972 22973 1 119.8800511 375.723200
22970 22972 22974 1 120.0200517 532.790560
22973 22972 22974 1 119.8800511 375.723200
22972 22974 22975 1 119.8800511 375.723200
22972 22974 22976 1 120.0200517 532.790560
22975 22974 22976 1 119.8800511 375.723200
22967 22976 22974 1 120.0200517 532.790560
22967 22976 22977 1 119.8800511 375.723200
22974 22976 22977 1 119.8800511 375.723200
22978 22979 22980 1 119.8800511 375.723200
22978 22979 22988 1 119.8800511 375.723200
22980 22979 22988 1 120.0200517 532.790560
22979 22980 22981 1 121.3800518 83.010560
22979 22980 22982 1 120.0200517 532.790560
22981 22980 22982 1 121.3800518 83.010560
4427 22981 5427 1 109.50000 418.400000
4427 22981 5428 1 109.50000 418.400000
4427 22981 22980 1 103.70004 836.800000
5427 22981 5428 1 109.50000 418.400000
5427 22981 22980 1 103.70004 836.800000
5428 22981 22980 1 103.70004 836.800000
22980 22982 22983 1 119.8800511 375.723200
22980 22982 22984 1 120.0200517 532.790560
22983 22982 22984 1 119.8800511 375.723200
22982 22984 22985 1 119.8800511 375.723200
22982 22984 22986 1 120.0200517 532.790560
22985 22984 22986 1 119.8800511 375.723200
22984 22986 22987 1 119.8800511 375.723200
22984 22986 22988 1 120.0200517 532.790560
22987 22986 22988 1 119.8800511 375.723200
22979 22988 22986 1 120.0200517 532.790560
22979 22988 22989 1 119.8800511 375.723200
22986 22988 22989 1 119.8800511 375.723200
22990 22991 22992 1 119.8800511 375.723200
22990 22991 23000 1 119.8800511 375.723200
22992 22991 23000 1 120.0200517 532.790560
22991 22992 22993 1 121.3800518 83.010560
22991 22992 22994 1 120.0200517 532.790560
22993 22992 22994 1 121.3800518 83.010560
800 22993 801 1 109.50000 418.400000
800 22993 11221 1 109.50000 418.400000
800 22993 22992 1 103.70004 836.800000
801 22993 11221 1 109.50000 418.400000
801 22993 22992 1 103.70004 836.800000
11221 22993 22992 1 103.70004 836.800000
22992 22994 22995 1 119.8800511 375.723200
22992 22994 22996 1 120.0200517 532.790560
22995 22994 22996 1 119.8800511 375.723200
22994 22996 22997 1 119.8800511 375.723200
22994 22996 22998 1 120.0200517 532.790560
22997 22996 22998 1 119.8800511 375.723200
22996 22998 22999 1 119.8800511 375.723200
22996 22998 23000 1 120.0200517 532.790560
22999 22998 23000 1 119.8800511 375.723200
22991 23000 22998 1 120.0200517 532.790560
22991 23000 23001 1 119.8800511 375.723200
22998 23000 23001 1 119.8800511 375.723200
23002 23003 23004 1 119.8800511 375.723200
23002 23003 23012 1 119.8800511 375.723200
23004 23003 23012 1 120.0200517 532.790560
23003 23004 23005 1 121.3800518 83.010560
23003 23004 23006 1 120.0200517 532.790560
23005 23004 23006 1 121.3800518 83.010560
6267 23005 6988 1 109.50000 418.400000
6267 23005 10626 1 109.50000 418.400000
6267 23005 23004 1 103.70004 836.800000
6988 23005 10626 1 109.50000 418.400000
6988 23005 23004 1 103.70004 836.800000
10626 23005 23004 1 103.70004 836.800000
23004 23006 23007 1 119.8800511 375.723200
23004 23006 23008 1 120.0200517 532.790560
23007 23006 23008 1 119.8800511 375.723200
23006 23008 23009 1 119.8800511 375.723200
23006 23008 23010 1 120.0200517 532.790560
23009 23008 23010 1 119.8800511 375.723200
23008 23010 23011 1 119.8800511 375.723200
23008 23010 23012 1 120.0200517 532.790560
23011 23010 23012 1 119.8800511 375.723200
23003 23012 23010 1 120.0200517 532.790560
23003 23012 23013 1 119.8800511 375.723200
23010 23012 23013 1 119.8800511 375.723200
23014 23015 23016 1 119.8800511 375.723200
23014 23015 23024 1 119.8800511 375.723200
23016 23015 23024 1 120.0200517 532.790560
23015 23016 23017 1 121.3800518 83.010560
23015 23016 23018 1 120.0200517 532.790560
23017 23016 23018 1 121.3800518 83.010560
3525 23017 5307 1 109.50000 418.400000
3525 23017 8877 1 109.50000 418.400000
3525 23017 23016 1 103.70004 836.800000
5307 23017 8877 1 109.50000 418.400000
5307 23017 23016 1 103.70004 836.800000
8877 23017 23016 1 103.70004 836.800000
23016 23018 23019 1 119.8800511 375.723200
23016 23018 23020 1 120.0200517 532.790560
23019 23018 23020 1 119.8800511 375.723200
23018 23020 23021 1 119.8800511 375.723200
23018 23020 23022 1 120.0200517 532.790560
23021 23020 23022 1 119.8800511 375.723200
23020 23022 23023 1 119.8800511 375.723200
23020 23022 23024 1 120.0200517 532.790560
23023 23022 23024 1 119.8800511 375.723200
23015 23024 23022 1 120.0200517 532.790560
23015 23024 23025 1 119.8800511 375.723200
23022 23024 23025 1 119.8800511 375.723200
23026 23027 23028 1 119.8800511 375.723200
23026 23027 23036 1 119.8800511 375.723200
23028 23027 23036 1 120.0200517 532.790560
23027 23028 23029 1 121.3800518 83.010560
23027 23028 23030 1 120.0200517 532.790560
23029 23028 23030 1 121.3800518 83.010560
4338 23029 4339 1 109.50000 418.400000
4338 23029 4340 1 109.50000 418.400000
4338 23029 23028 1 103.70004 836.800000
4339 23029 4340 1 109.50000 418.400000
4339 23029 23028 1 103.70004 836.800000
4340 23029 23028 1 103.70004 836.800000
23028 23030 23031 1 119.8800511 375.723200
23028 23030 23032 1 120.0200517 532.790560
23031 23030 23032 1 119.8800511 375.723200
23030 23032 23033 1 119.8800511 375.723200
23030 23032 23034 1 120.0200517 532.790560
23033 23032 23034 1 119.8800511 375.723200
23032 23034 23035 1 119.8800511 375.723200
23032 23034 23036 1 120.0200517 532.790560
23035 23034 23036 1 119.8800511 375.723200
23027 23036 23034 1 120.0200517 532.790560
23027 23036 23037 1 119.8800511 375.723200
23034 23036 23037 1 119.8800511 375.723200
23038 23039 23040 1 119.8800511 375.723200
23038 23039 23048 1 119.8800511 375.723200
23040 23039 23048 1 120.0200517 532.790560
23039 23040 23041 1 121.3800518 83.010560
23039 23040 23042 1 120.0200517 532.790560
23041 23040 23042 1 121.3800518 83.010560
74 23041 9103 1 109.50000 418.400000
74 23041 9104 1 109.50000 418.400000
74 23041 23040 1 103.70004 836.800000
9103 23041 9104 1 109.50000 418.400000
9103 23041 23040 1 103.70004 836.800000
9104 23041 23040 1 103.70004 836.800000
23040 23042 23043 1 119.8800511 375.723200
23040 23042 23044 1 120.0200517 532.790560
23043 23042 23044 1 119.8800511 375.723200
23042 23044 23045 1 119.8800511 375.723200
23042 23044 23046 1 120.0200517 532.790560
23045 23044 23046 1 119.8800511 375.723200
23044 23046 23047 1 119.8800511 375.723200
23044 23046 23048 1 120.0200517 532.790560
23047 23046 23048 1 119.8800511 375.723200
23039 23048 23046 1 120.0200517 532.790560
23039 23048 23049 1 119.8800511 375.723200
23046 23048 23049 1 119.8800511 375.723200
23050 23051 23052 1 119.8800511 375.723200
23050 23051 23060 1 119.8800511 375.723200
23052 23051 23060 1 120.0200517 532.790560
23051 23052 23053 1 121.3800518 83.010560
23051 23052 23054 1 120.0200517 532.790560
23053 23052 23054 1 121.3800518 83.010560
1623 23053 1624 1 109.50000 418.400000
1623 23053 1625 1 109.50000 418.400000
1623 23053 23052 1 103.70004 836.800000
1624 23053 1625 1 109.50000 418.400000
1624 23053 23052 1 103.70004 836.800000
1625 23053 23052 1 103.70004 836.800000
23052 23054 23055 1 119.8800511 375.723200
23052 23054 23056 1 120.0200517 532.790560
23055 23054 23056 1 119.8800511 375.723200
23054 23056 23057 1 119.8800511 375.723200
23054 23056 23058 1 120.0200517 532.790560
23057 23056 23058 1 119.8800511 375.723200
23056 23058 23059 1 119.8800511 375.723200
23056 23058 23060 1 120.0200517 532.790560
23059 23058 23060 1 119.8800511 375.723200
23051 23060 23058 1 120.0200517 532.790560
23051 23060 23061 1 119.8800511 375.723200
23058 23060 23061 1 119.8800511 375.723200
23062 23063 23064 1 119.8800511 375.723200
23062 23063 23072 1 119.8800511 375.723200
23064 23063 23072 1 120.0200517 532.790560
23063 23064 23065 1 121.3800518 83.010560
23063 23064 23066 1 120.0200517 532.790560
23065 23064 23066 1 121.3800518 83.010560
6108 23065 6109 1 109.50000 418.400000
6108 23065 6110 1 109.50000 418.400000
6108 23065 23064 1 103.70004 836.800000
6109 23065 6110 1 109.50000 418.400000
6109 23065 23064 1 103.70004 836.800000
6110 23065 23064 1 103.70004 836.800000
23064 23066 23067 1 119.8800511 375.723200
23064 23066 23068 1 120.0200517 532.790560
23067 23066 23068 1 119.8800511 375.723200
23066 23068 23069 1 119.8800511 375.723200
23066 23068 23070 1 120.0200517 532.790560
23069 23068 23070 1 119.8800511 375.723200
23068 23070 23071 1 119.8800511 375.723200
23068 23070 23072 1 120.0200517 532.790560
23071 23070 23072 1 119.8800511 375.723200
23063 23072 23070 1 120.0200517 532.790560
23063 23072 23073 1 119.8800511 375.723200
23070 23072 23073 1 119.8800511 375.723200
23074 23075 23076 1 119.8800511 375.723200
23074 23075 23084 1 119.8800511 375.723200
23076 23075 23084 1 120.0200517 532.790560
23075 23076 23077 1 121.3800518 83.010560
23075 23076 23078 1 120.0200517 532.790560
23077 23076 23078 1 121.3800518 83.010560
5774 23077 5775 1 109.50000 418.400000
5774 23077 5776 1 109.50000 418.400000
5774 23077 23076 1 103.70004 836.800000
5775 23077 5776 1 109.50000 418.400000
5775 23077 23076 1 103.70004 836.800000
5776 23077 23076 1 103.70004 836.800000
23076 23078 23079 1 119.8800511 375.723200
23076 23078 23080 1 120.0200517 532.790560
23079 23078 23080 1 119.8800511 375.723200
23078 23080 23081 1 119.8800511 375.723200
23078 23080 23082 1 120.0200517 532.790560
23081 23080 23082 1 119.8800511 375.723200
23080 23082 23083 1 119.8800511 375.723200
23080 23082 23084 1 120.0200517 532.790560
23083 23082 23084 1 119.8800511 375.723200
23075 23084 23082 1 120.0200517 532.790560
23075 23084 23085 1 119.8800511 375.723200
23082 23084 23085 1 119.8800511 375.723200
23086 23087 23088 1 119.8800511 375.723200
23086 23087 23096 1 119.8800511 375.723200
23088 23087 23096 1 120.0200517 532.790560
23087 23088 23089 1 121.3800518 83.010560
23087 23088 23090 1 120.0200517 532.790560
23089 23088 23090 1 121.3800518 83.010560
7113 23089 9899 1 109.50000 418.400000
7113 23089 11217 1 109.50000 418.400000
7113 23089 23088 1 103.70004 836.800000
9899 23089 11217 1 109.50000 418.400000
9899 23089 23088 1 103.70004 836.800000
11217 23089 23088 1 103.70004 836.800000
23088 23090 23091 1 119.8800511 375.723200
23088 23090 23092 1 120.0200517 532.790560
23091 23090 23092 1 119.8800511 375.723200
23090 23092 23093 1 119.8800511 375.723200
23090 23092 23094 1 120.0200517 532.790560
23093 23092 23094 1 119.8800511 375.723200
23092 23094 23095 1 119.8800511 375.723200
23092 23094 23096 1 120.0200517 532.790560
23095 23094 23096 1 119.8800511 375.723200
23087 23096 23094 1 120.0200517 532.790560
23087 23096 23097 1 119.8800511 375.723200
23094 23096 23097 1 119.8800511 375.723200
23098 23099 23100 1 119.8800511 375.723200
23098 23099 23108 1 119.8800511 375.723200
23100 23099 23108 1 120.0200517 532.790560
23099 23100 23101 1 121.3800518 83.010560
23099 23100 23102 1 120.0200517 532.790560
23101 23100 23102 1 121.3800518 83.010560
3333 23101 3334 1 109.50000 418.400000
3333 23101 3335 1 109.50000 418.400000
3333 23101 23100 1 103.70004 836.800000
3334 23101 3335 1 109.50000 418.400000
3334 23101 23100 1 103.70004 836.800000
3335 23101 23100 1 103.70004 836.800000
23100 23102 23103 1 119.8800511 375.723200
23100 23102 23104 1 120.0200517 532.790560
23103 23102 23104 1 119.8800511 375.723200
23102 23104 23105 1 119.8800511 375.723200
23102 23104 23106 1 120.0200517 532.790560
23105 23104 23106 1 119.8800511 375.723200
23104 23106 23107 1 119.8800511 375.723200
23104 23106 23108 1 120.0200517 532.790560
23107 23106 23108 1 119.8800511 375.723200
23099 23108 23106 1 120.0200517 532.790560
23099 23108 23109 1 119.8800511 375.723200
23106 23108 23109 1 119.8800511 375.723200
23110 23111 23112 1 119.8800511 375.723200
23110 23111 23120 1 119.8800511 375.723200
23112 23111 23120 1 120.0200517 532.790560
23111 23112 23113 1 121.3800518 83.010560
23111 23112 23114 1 120.0200517 532.790560
23113 23112 23114 1 121.3800518 83.010560
744 23113 3519 1 109.50000 418.400000
744 23113 7369 1 109.50000 418.400000
744 23113 23112 1 103.70004 836.800000
3519 23113 7369 1 109.50000 418.400000
3519 23113 23112 1 103.70004 836.800000
7369 23113 23112 1 103.70004 836.800000
23112 23114 23115 1 119.8800511 375.723200
23112 23114 23116 1 120.0200517 532.790560
23115 23114 23116 1 119.8800511 375.723200
23114 23116 23117 1 119.8800511 375.723200
23114 23116 23118 1 120.0200517 532.790560
23117 23116 23118 1 119.8800511 375.723200
23116 23118 23119 1 119.8800511 375.723200
23116 23118 23120 1 120.0200517 532.790560
23119 23118 23120 1 119.8800511 375.723200
23111 23120 23118 1 120.0200517 532.790560
23111 23120 23121 1 119.8800511 375.723200
23118 23120 23121 1 119.8800511 375.723200
23122 23123 23124 1 119.8800511 375.723200
23122 23123 23132 1 119.8800511 375.723200
23124 23123 23132 1 120.0200517 532.790560
23123 23124 23125 1 121.3800518 83.010560
23123 23124 23126 1 120.0200517 532.790560
23125 23124 23126 1 121.3800518 83.010560
5393 23125 5394 1 109.50000 418.400000
5393 23125 11166 1 109.50000 418.400000
5393 23125 23124 1 103.70004 836.800000
5394 23125 11166 1 109.50000 418.400000
5394 23125 23124 1 103.70004 836.800000
11166 23125 23124 1 103.70004 836.800000
23124 23126 23127 1 119.8800511 375.723200
23124 23126 23128 1 120.0200517 532.790560
23127 23126 23128 1 119.8800511 375.723200
23126 23128 23129 1 119.8800511 375.723200
23126 23128 23130 1 120.0200517 532.790560
23129 23128 23130 1 119.8800511 375.723200
23128 23130 23131 1 119.8800511 375.723200
23128 23130 23132 1 120.0200517 532.790560
23131 23130 23132 1 119.8800511 375.723200
23123 23132 23130 1 120.0200517 532.790560
23123 23132 23133 1 119.8800511 375.723200
23130 23132 23133 1 119.8800511 375.723200
23134 23135 23136 1 119.8800511 375.723200
23134 23135 23144 1 119.8800511 375.723200
23136 23135 23144 1 120.0200517 532.790560
23135 23136 23137 1 121.3800518 83.010560
23135 23136 23138 1 120.0200517 532.790560
23137 23136 23138 1 121.3800518 83.010560
4617 23137 4929 1 109.50000 418.400000
4617 23137 4930 1 109.50000 418.400000
4617 23137 23136 1 103.70004 836.800000
4929 23137 4930 1 109.50000 418.400000
4929 23137 23136 1 103.70004 836.800000
4930 23137 23136 1 103.70004 836.800000
23136 23138 23139 1 119.8800511 375.723200
23136 23138 23140 1 120.0200517 532.790560
23139 23138 23140 1 119.8800511 375.723200
23138 23140 23141 1 119.8800511 375.723200
23138 23140 23142 1 120.0200517 532.790560
23141 23140 23142 1 119.8800511 375.723200
23140 23142 23143 1 119.8800511 375.723200
23140 23142 23144 1 120.0200517 532.790560
23143 23142 23144 1 119.8800511 375.723200
23135 23144 23142 1 120.0200517 532.790560
23135 23144 23145 1 119.8800511 375.723200
23142 23144 23145 1 119.8800511 375.723200
23146 23147 23148 1 119.8800511 375.723200
23146 23147 23156 1 119.8800511 375.723200
23148 23147 23156 1 120.0200517 532.790560
23147 23148 23149 1 121.3800518 83.010560
23147 23148 23150 1 120.0200517 532.790560
23149 23148 23150 1 121.3800518 83.010560
1034 23149 4378 1 109.50000 418.400000
1034 23149 11170 1 109.50000 418.400000
1034 23149 23148 1 103.70004 836.800000
4378 23149 11170 1 109.50000 418.400000
4378 23149 23148 1 103.70004 836.800000
11170 23149 23148 1 103.70004 836.800000
23148 23150 23151 1 119.8800511 375.723200
23148 23150 23152 1 120.0200517 532.790560
23151 23150 23152 1 119.8800511 375.723200
23150 23152 23153 1 119.8800511 375.723200
23150 23152 23154 1 120.0200517 532.790560
23153 23152 23154 1 119.8800511 375.723200
23152 23154 23155 1 119.8800511 375.723200
23152 23154 23156 1 120.0200517 532.790560
23155 23154 23156 1 119.8800511 375.723200
23147 23156 23154 1 120.0200517 532.790560
23147 23156 23157 1 119.8800511 375.723200
23154 23156 23157 1 119.8800511 375.723200
23158 23159 23160 1 119.8800511 375.723200
23158 23159 23168 1 119.8800511 375.723200
23160 23159 23168 1 120.0200517 532.790560
23159 23160 23161 1 121.3800518 83.010560
23159 23160 23162 1 120.0200517 532.790560
23161 23160 23162 1 121.3800518 83.010560
4330 23161 6695 1 109.50000 418.400000
4330 23161 8777 1 109.50000 418.400000
4330 23161 23160 1 103.70004 836.800000
6695 23161 8777 1 109.50000 418.400000
6695 23161 23160 1 103.70004 836.800000
8777 23161 23160 1 103.70004 836.800000
23160 23162 23163 1 119.8800511 375.723200
23160 23162 23164 1 120.0200517 532.790560
23163 23162 23164 1 119.8800511 375.723200
23162 23164 23165 1 119.8800511 375.723200
23162 23164 23166 1 120.0200517 532.790560
23165 23164 23166 1 119.8800511 375.723200
23164 23166 23167 1 119.8800511 375.723200
23164 23166 23168 1 120.0200517 532.790560
23167 23166 23168 1 119.8800511 375.723200
23159 23168 23166 1 120.0200517 532.790560
23159 23168 23169 1 119.8800511 375.723200
23166 23168 23169 1 119.8800511 375.723200
23170 23171 23172 1 119.8800511 375.723200
23170 23171 23180 1 119.8800511 375.723200
23172 23171 23180 1 120.0200517 532.790560
23171 23172 23173 1 121.3800518 83.010560
23171 23172 23174 1 120.0200517 532.790560
23173 23172 23174 1 121.3800518 83.010560
2584 23173 3644 1 109.50000 418.400000
2584 23173 3645 1 109.50000 418.400000
2584 23173 23172 1 103.70004 836.800000
3644 23173 3645 1 109.50000 418.400000
3644 23173 23172 1 103.70004 836.800000
3645 23173 23172 1 103.70004 836.800000
23172 23174 23175 1 119.8800511 375.723200
23172 23174 23176 1 120.0200517 532.790560
23175 23174 23176 1 119.8800511 375.723200
23174 23176 23177 1 119.8800511 375.723200
23174 23176 23178 1 120.0200517 532.790560
23177 23176 23178 1 119.8800511 375.723200
23176 23178 23179 1 119.8800511 375.723200
23176 23178 23180 1 120.0200517 532.790560
23179 23178 23180 1 119.8800511 375.723200
23171 23180 23178 1 120.0200517 532.790560
23171 23180 23181 1 119.8800511 375.723200
23178 23180 23181 1 119.8800511 375.723200
23182 23183 23184 1 119.8800511 375.723200
23182 23183 23192 1 119.8800511 375.723200
23184 23183 23192 1 120.0200517 532.790560
23183 23184 23185 1 121.3800518 83.010560
23183 23184 23186 1 120.0200517 532.790560
23185 23184 23186 1 121.3800518 83.010560
4996 23185 4997 1 109.50000 418.400000
4996 23185 11194 1 109.50000 418.400000
4996 23185 23184 1 103.70004 836.800000
4997 23185 11194 1 109.50000 418.400000
4997 23185 23184 1 103.70004 836.800000
11194 23185 23184 1 103.70004 836.800000
23184 23186 23187 1 119.8800511 375.723200
23184 23186 23188 1 120.0200517 532.790560
23187 23186 23188 1 119.8800511 375.723200
23186 23188 23189 1 119.8800511 375.723200
23186 23188 23190 1 120.0200517 532.790560
23189 23188 23190 1 119.8800511 375.723200
23188 23190 23191 1 119.8800511 375.723200
23188 23190 23192 1 120.0200517 532.790560
23191 23190 23192 1 119.8800511 375.723200
23183 23192 23190 1 120.0200517 532.790560
23183 23192 23193 1 119.8800511 375.723200
23190 23192 23193 1 119.8800511 375.723200
23194 23195 23196 1 119.8800511 375.723200
23194 23195 23204 1 119.8800511 375.723200
23196 23195 23204 1 120.0200517 532.790560
23195 23196 23197 1 121.3800518 83.010560
23195 23196 23198 1 120.0200517 532.790560
23197 23196 23198 1 121.3800518 83.010560
1971 23197 5428 1 109.50000 418.400000
1971 23197 10312 1 109.50000 418.400000
1971 23197 23196 1 103.70004 836.800000
5428 23197 10312 1 109.50000 418.400000
5428 23197 23196 1 103.70004 836.800000
10312 23197 23196 1 103.70004 836.800000
23196 23198 23199 1 119.8800511 375.723200
23196 23198 23200 1 120.0200517 532.790560
23199 23198 23200 1 119.8800511 375.723200
23198 23200 23201 1 119.8800511 375.723200
23198 23200 23202 1 120.0200517 532.790560
23201 23200 23202 1 119.8800511 375.723200
23200 23202 23203 1 119.8800511 375.723200
23200 23202 23204 1 120.0200517 532.790560
23203 23202 23204 1 119.8800511 375.723200
23195 23204 23202 1 120.0200517 532.790560
23195 23204 23205 1 119.8800511 375.723200
23202 23204 23205 1 119.8800511 375.723200
23206 23207 23208 1 119.8800511 375.723200
23206 23207 23216 1 119.8800511 375.723200
23208 23207 23216 1 120.0200517 532.790560
23207 23208 23209 1 121.3800518 83.010560
23207 23208 23210 1 120.0200517 532.790560
23209 23208 23210 1 121.3800518 83.010560
3879 23209 7170 1 109.50000 418.400000
3879 23209 10491 1 109.50000 418.400000
3879 23209 23208 1 103.70004 836.800000
7170 23209 10491 1 109.50000 418.400000
7170 23209 23208 1 103.70004 836.800000
10491 23209 23208 1 103.70004 836.800000
23208 23210 23211 1 119.8800511 375.723200
23208 23210 23212 1 120.0200517 532.790560
23211 23210 23212 1 119.8800511 375.723200
23210 23212 23213 1 119.8800511 375.723200
23210 23212 23214 1 120.0200517 532.790560
23213 23212 23214 1 119.8800511 375.723200
23212 23214 23215 1 119.8800511 375.723200
23212 23214 23216 1 120.0200517 532.790560
23215 23214 23216 1 119.8800511 375.723200
23207 23216 23214 1 120.0200517 532.790560
23207 23216 23217 1 119.8800511 375.723200
23214 23216 23217 1 119.8800511 375.723200
23218 23219 23220 1 119.8800511 375.723200
23218 23219 23228 1 119.8800511 375.723200
23220 23219 23228 1 120.0200517 532.790560
23219 23220 23221 1 121.3800518 83.010560
23219 23220 23222 1 120.0200517 532.790560
23221 23220 23222 1 121.3800518 83.010560
320 23221 1044 1 109.50000 418.400000
320 23221 11186 1 109.50000 418.400000
320 23221 23220 1 103.70004 836.800000
1044 23221 11186 1 109.50000 418.400000
1044 23221 23220 1 103.70004 836.800000
11186 23221 23220 1 103.70004 836.800000
23220 23222 23223 1 119.8800511 375.723200
23220 23222 23224 1 120.0200517 532.790560
23223 23222 23224 1 119.8800511 375.723200
23222 23224 23225 1 119.8800511 375.723200
23222 23224 23226 1 120.0200517 532.790560
23225 23224 23226 1 119.8800511 375.723200
23224 23226 23227 1 119.8800511 375.723200
23224 23226 23228 1 120.0200517 532.790560
23227 23226 23228 1 119.8800511 375.723200
23219 23228 23226 1 120.0200517 532.790560
23219 23228 23229 1 119.8800511 375.723200
23226 23228 23229 1 119.8800511 375.723200
23230 23231 23232 1 119.8800511 375.723200
23230 23231 23240 1 119.8800511 375.723200
23232 23231 23240 1 120.0200517 532.790560
23231 23232 23233 1 121.3800518 83.010560
23231 23232 23234 1 120.0200517 532.790560
23233 23232 23234 1 121.3800518 83.010560
6310 23233 6568 1 109.50000 418.400000
6310 23233 8942 1 109.50000 418.400000
6310 23233 23232 1 103.70004 836.800000
6568 23233 8942 1 109.50000 418.400000
6568 23233 23232 1 103.70004 836.800000
8942 23233 23232 1 103.70004 836.800000
23232 23234 23235 1 119.8800511 375.723200
23232 23234 23236 1 120.0200517 532.790560
23235 23234 23236 1 119.8800511 375.723200
23234 23236 23237 1 119.8800511 375.723200
23234 23236 23238 1 120.0200517 532.790560
23237 23236 23238 1 119.8800511 375.723200
23236 23238 23239 1 119.8800511 375.723200
23236 23238 23240 1 120.0200517 532.790560
23239 23238 23240 1 119.8800511 375.723200
23231 23240 23238 1 120.0200517 532.790560
23231 23240 23241 1 119.8800511 375.723200
23238 23240 23241 1 119.8800511 375.723200
23242 23243 23244 1 119.8800511 375.723200
23242 23243 23252 1 119.8800511 375.723200
23244 23243 23252 1 120.0200517 532.790560
23243 23244 23245 1 121.3800518 83.010560
23243 23244 23246 1 120.0200517 532.790560
23245 23244 23246 1 121.3800518 83.010560
7200 23245 7301 1 109.50000 418.400000
7200 23245 9520 1 109.50000 418.400000
7200 23245 23244 1 103.70004 836.800000
7301 23245 9520 1 109.50000 418.400000
7301 23245 23244 1 103.70004 836.800000
9520 23245 23244 1 103.70004 836.800000
23244 23246 23247 1 119.8800511 375.723200
23244 23246 23248 1 120.0200517 532.790560
23247 23246 23248 1 119.8800511 375.723200
23246 23248 23249 1 119.8800511 375.723200
23246 23248 23250 1 120.0200517 532.790560
23249 23248 23250 1 119.8800511 375.723200
23248 23250 23251 1 119.8800511 375.723200
23248 23250 23252 1 120.0200517 532.790560
23251 23250 23252 1 119.8800511 375.723200
23243 23252 23250 1 120.0200517 532.790560
23243 23252 23253 1 119.8800511 375.723200
23250 23252 23253 1 119.8800511 375.723200
23254 23255 23256 1 119.8800511 375.723200
23254 23255 23264 1 119.8800511 375.723200
23256 23255 23264 1 120.0200517 532.790560
23255 23256 23257 1 121.3800518 83.010560
23255 23256 23258 1 120.0200517 532.790560
23257 23256 23258 1 121.3800518 83.010560
262 23257 9690 1 109.50000 418.400000
262 23257 10891 1 109.50000 418.400000
262 23257 23256 1 103.70004 836.800000
9690 23257 10891 1 109.50000 418.400000
9690 23257 23256 1 103.70004 836.800000
10891 23257 23256 1 103.70004 836.800000
23256 23258 23259 1 119.8800511 375.723200
23256 23258 23260 1 120.0200517 532.790560
23259 23258 23260 1 119.8800511 375.723200
23258 23260 23261 1 119.8800511 375.723200
23258 23260 23262 1 120.0200517 532.790560
23261 23260 23262 1 119.8800511 375.723200
23260 23262 23263 1 119.8800511 375.723200
23260 23262 23264 1 120.0200517 532.790560
23263 23262 23264 1 119.8800511 375.723200
23255 23264 23262 1 120.0200517 532.790560
23255 23264 23265 1 119.8800511 375.723200
23262 23264 23265 1 119.8800511 375.723200
23266 23267 23268 1 119.8800511 375.723200
23266 23267 23276 1 119.8800511 375.723200
23268 23267 23276 1 120.0200517 532.790560
23267 23268 23269 1 121.3800518 83.010560
23267 23268 23270 1 120.0200517 532.790560
23269 23268 23270 1 121.3800518 83.010560
1736 23269 2965 1 109.50000 418.400000
1736 23269 3899 1 109.50000 418.400000
1736 23269 23268 1 103.70004 836.800000
2965 23269 3899 1 109.50000 418.400000
2965 23269 23268 1 103.70004 836.800000
3899 23269 23268 1 103.70004 836.800000
23268 23270 23271 1 119.8800511 375.723200
23268 23270 23272 1 120.0200517 532.790560
23271 23270 23272 1 119.8800511 375.723200
23270 23272 23273 1 119.8800511 375.723200
23270 23272 23274 1 120.0200517 532.790560
23273 23272 23274 1 119.8800511 375.723200
23272 23274 23275 1 119.8800511 375.723200
23272 23274 23276 1 120.0200517 532.790560
23275 23274 23276 1 119.8800511 375.723200
23267 23276 23274 1 120.0200517 532.790560
23267 23276 23277 1 119.8800511 375.723200
23274 23276 23277 1 119.8800511 375.723200
23278 23279 23280 1 119.8800511 375.723200
23278 23279 23288 1 119.8800511 375.723200
23280 23279 23288 1 120.0200517 532.790560
23279 23280 23281 1 121.3800518 83.010560
23279 23280 23282 1 120.0200517 532.790560
23281 23280 23282 1 121.3800518 83.010560
6997 23281 8822 1 109.50000 418.400000
6997 23281 10551 1 109.50000 418.400000
6997 23281 23280 1 103.70004 836.800000
8822 23281 10551 1 109.50000 418.400000
8822 23281 23280 1 103.70004 836.800000
10551 23281 23280 1 103.70004 836.800000
23280 23282 23283 1 119.8800511 375.723200
23280 23282 23284 1 120.0200517 532.790560
23283 23282 23284 1 119.8800511 375.723200
23282 23284 23285 1 119.8800511 375.723200
23282 23284 23286 1 120.0200517 532.790560
23285 23284 23286 1 119.8800511 375.723200
23284 23286 23287 1 119.8800511 375.723200
23284 23286 23288 1 120.0200517 532.790560
23287 23286 23288 1 119.8800511 375.723200
23279 23288 23286 1 120.0200517 532.790560
23279 23288 23289 1 119.8800511 375.723200
23286 23288 23289 1 119.8800511 375.723200
23290 23291 23292 1 119.8800511 375.723200
23290 23291 23300 1 119.8800511 375.723200
23292 23291 23300 1 120.0200517 532.790560
23291 23292 23293 1 121.3800518 83.010560
23291 23292 23294 1 120.0200517 532.790560
23293 23292 23294 1 121.3800518 83.010560
3443 23293 8413 1 109.50000 418.400000
3443 23293 9048 1 109.50000 418.400000
3443 23293 23292 1 103.70004 836.800000
8413 23293 9048 1 109.50000 418.400000
8413 23293 23292 1 103.70004 836.800000
9048 23293 23292 1 103.70004 836.800000
23292 23294 23295 1 119.8800511 375.723200
23292 23294 23296 1 120.0200517 532.790560
23295 23294 23296 1 119.8800511 375.723200
23294 23296 23297 1 119.8800511 375.723200
23294 23296 23298 1 120.0200517 532.790560
23297 23296 23298 1 119.8800511 375.723200
23296 23298 23299 1 119.8800511 375.723200
23296 23298 23300 1 120.0200517 532.790560
23299 23298 23300 1 119.8800511 375.723200
23291 23300 23298 1 120.0200517 532.790560
23291 23300 23301 1 119.8800511 375.723200
23298 23300 23301 1 119.8800511 375.723200
23302 23303 23304 1 119.8800511 375.723200
23302 23303 23312 1 119.8800511 375.723200
23304 23303 23312 1 120.0200517 532.790560
23303 23304 23305 1 121.3800518 83.010560
23303 23304 23306 1 120.0200517 532.790560
23305 23304 23306 1 121.3800518 83.010560
6572 23305 6574 1 109.50000 418.400000
6572 23305 10081 1 109.50000 418.400000
6572 23305 23304 1 103.70004 836.800000
6574 23305 10081 1 109.50000 418.400000
6574 23305 23304 1 103.70004 836.800000
10081 23305 23304 1 103.70004 836.800000
23304 23306 23307 1 119.8800511 375.723200
23304 23306 23308 1 120.0200517 532.790560
23307 23306 23308 1 119.8800511 375.723200
23306 23308 23309 1 119.8800511 375.723200
23306 23308 23310 1 120.0200517 532.790560
23309 23308 23310 1 119.8800511 375.723200
23308 23310 23311 1 119.8800511 375.723200
23308 23310 23312 1 120.0200517 532.790560
23311 23310 23312 1 119.8800511 375.723200
23303 23312 23310 1 120.0200517 532.790560
23303 23312 23313 1 119.8800511 375.723200
23310 23312 23313 1 119.8800511 375.723200
23314 23315 23316 1 119.8800511 375.723200
23314 23315 23324 1 119.8800511 375.723200
23316 23315 23324 1 120.0200517 532.790560
23315 23316 23317 1 121.3800518 83.010560
23315 23316 23318 1 120.0200517 532.790560
23317 23316 23318 1 121.3800518 83.010560
7860 23317 8222 1 109.50000 418.400000
7860 23317 11178 1 109.50000 418.400000
7860 23317 23316 1 103.70004 836.800000
8222 23317 11178 1 109.50000 418.400000
8222 23317 23316 1 103.70004 836.800000
11178 23317 23316 1 103.70004 836.800000
23316 23318 23319 1 119.8800511 375.723200
23316 23318 23320 1 120.0200517 532.790560
23319 23318 23320 1 119.8800511 375.723200
23318 23320 23321 1 119.8800511 375.723200
23318 23320 23322 1 120.0200517 532.790560
23321 23320 23322 1 119.8800511 375.723200
23320 23322 23323 1 119.8800511 375.723200
23320 23322 23324 1 120.0200517 532.790560
23323 23322 23324 1 119.8800511 375.723200
23315 23324 23322 1 120.0200517 532.790560
23315 23324 23325 1 119.8800511 375.723200
23322 23324 23325 1 119.8800511 375.723200
23326 23327 23328 1 119.8800511 375.723200
23326 23327 23336 1 119.8800511 375.723200
23328 23327 23336 1 120.0200517 532.790560
23327 23328 23329 1 121.3800518 83.010560
23327 23328 23330 1 120.0200517 532.790560
23329 23328 23330 1 121.3800518 83.010560
1756 23329 4773 1 109.50000 418.400000
1756 23329 6307 1 109.50000 418.400000
1756 23329 23328 1 103.70004 836.800000
4773 23329 6307 1 109.50000 418.400000
4773 23329 23328 1 103.70004 836.800000
6307 23329 23328 1 103.70004 836.800000
23328 23330 23331 1 119.8800511 375.723200
23328 23330 23332 1 120.0200517 532.790560
23331 23330 23332 1 119.8800511 375.723200
23330 23332 23333 1 119.8800511 375.723200
23330 23332 23334 1 120.0200517 532.790560
23333 23332 23334 1 119.8800511 375.723200
23332 23334 23335 1 119.8800511 375.723200
23332 23334 23336 1 120.0200517 532.790560
23335 23334 23336 1 119.8800511 375.723200
23327 23336 23334 1 120.0200517 532.790560
23327 23336 23337 1 119.8800511 375.723200
23334 23336 23337 1 119.8800511 375.723200
23338 23339 23340 1 119.8800511 375.723200
23338 23339 23348 1 119.8800511 375.723200
23340 23339 23348 1 120.0200517 532.790560
23339 23340 23341 1 121.3800518 83.010560
23339 23340 23342 1 120.0200517 532.790560
23341 23340 23342 1 121.3800518 83.010560
4870 23341 7153 1 109.50000 418.400000
4870 23341 7154 1 109.50000 418.400000
4870 23341 23340 1 103.70004 836.800000
7153 23341 7154 1 109.50000 418.400000
7153 23341 23340 1 103.70004 836.800000
7154 23341 23340 1 103.70004 836.800000
23340 23342 23343 1 119.8800511 375.723200
23340 23342 23344 1 120.0200517 532.790560
23343 23342 23344 1 119.8800511 375.723200
23342 23344 23345 1 119.8800511 375.723200
23342 23344 23346 1 120.0200517 532.790560
23345 23344 23346 1 119.8800511 375.723200
23344 23346 23347 1 119.8800511 375.723200
23344 23346 23348 1 120.0200517 532.790560
23347 23346 23348 1 119.8800511 375.723200
23339 23348 23346 1 120.0200517 532.790560
23339 23348 23349 1 119.8800511 375.723200
23346 23348 23349 1 119.8800511 375.723200
23350 23351 23352 1 119.8800511 375.723200
23350 23351 23360 1 119.8800511 375.723200
23352 23351 23360 1 120.0200517 532.790560
23351 23352 23353 1 121.3800518 83.010560
23351 23352 23354 1 120.0200517 532.790560
23353 23352 23354 1 121.3800518 83.010560
1760 23353 8105 1 109.50000 418.400000
1760 23353 9004 1 109.50000 418.400000
1760 23353 23352 1 103.70004 836.800000
8105 23353 9004 1 109.50000 418.400000
8105 23353 23352 1 103.70004 836.800000
9004 23353 23352 1 103.70004 836.800000
23352 23354 23355 1 119.8800511 375.723200
23352 23354 23356 1 120.0200517 532.790560
23355 23354 23356 1 119.8800511 375.723200
23354 23356 23357 1 119.8800511 375.723200
23354 23356 23358 1 120.0200517 532.790560
23357 23356 23358 1 119.8800511 375.723200
23356 23358 23359 1 119.8800511 375.723200
23356 23358 23360 1 120.0200517 532.790560
23359 23358 23360 1 119.8800511 375.723200
23351 23360 23358 1 120.0200517 532.790560
23351 23360 23361 1 119.8800511 375.723200
23358 23360 23361 1 119.8800511 375.723200
23362 23363 23364 1 119.8800511 375.723200
23362 23363 23372 1 119.8800511 375.723200
23364 23363 23372 1 120.0200517 532.790560
23363 23364 23365 1 121.3800518 83.010560
23363 23364 23366 1 120.0200517 532.790560
23365 23364 23366 1 121.3800518 83.010560
1443 23365 1444 1 109.50000 418.400000
1443 23365 11195 1 109.50000 418.400000
1443 23365 23364 1 103.70004 836.800000
1444 23365 11195 1 109.50000 418.400000
1444 23365 23364 1 103.70004 836.800000
11195 23365 23364 1 103.70004 836.800000
23364 23366 23367 1 119.8800511 375.723200
23364 23366 23368 1 120.0200517 532.790560
23367 23366 23368 1 119.8800511 375.723200
23366 23368 23369 1 119.8800511 375.723200
23366 23368 23370 1 120.0200517 532.790560
23369 23368 23370 1 119.8800511 375.723200
23368 23370 23371 1 119.8800511 375.723200
23368 23370 23372 1 120.0200517 532.790560
23371 23370 23372 1 119.8800511 375.723200
23363 23372 23370 1 120.0200517 532.790560
23363 23372 23373 1 119.8800511 375.723200
23370 23372 23373 1 119.8800511 375.723200
23374 23375 23376 1 119.8800511 375.723200
23374 23375 23384 1 119.8800511 375.723200
23376 23375 23384 1 120.0200517 532.790560
23375 23376 23377 1 121.3800518 83.010560
23375 23376 23378 1 120.0200517 532.790560
23377 23376 23378 1 121.3800518 83.010560
8938 23377 9991 1 109.50000 418.400000
8938 23377 11144 1 109.50000 418.400000
8938 23377 23376 1 103.70004 836.800000
9991 23377 11144 1 109.50000 418.400000
9991 23377 23376 1 103.70004 836.800000
11144 23377 23376 1 103.70004 836.800000
23376 23378 23379 1 119.8800511 375.723200
23376 23378 23380 1 120.0200517 532.790560
23379 23378 23380 1 119.8800511 375.723200
23378 23380 23381 1 119.8800511 375.723200
23378 23380 23382 1 120.0200517 532.790560
23381 23380 23382 1 119.8800511 375.723200
23380 23382 23383 1 119.8800511 375.723200
23380 23382 23384 1 120.0200517 532.790560
23383 23382 23384 1 119.8800511 375.723200
23375 23384 23382 1 120.0200517 532.790560
23375 23384 23385 1 119.8800511 375.723200
23382 23384 23385 1 119.8800511 375.723200
23386 23387 23388 1 119.8800511 375.723200
23386 23387 23396 1 119.8800511 375.723200
23388 23387 23396 1 120.0200517 532.790560
23387 23388 23389 1 121.3800518 83.010560
23387 23388 23390 1 120.0200517 532.790560
23389 23388 23390 1 121.3800518 83.010560
514 23389 3976 1 109.50000 418.400000
514 23389 11236 1 109.50000 418.400000
514 23389 23388 1 103.70004 836.800000
3976 23389 11236 1 109.50000 418.400000
3976 23389 23388 1 103.70004 836.800000
11236 23389 23388 1 103.70004 836.800000
23388 23390 23391 1 119.8800511 375.723200
23388 23390 23392 1 120.0200517 532.790560
23391 23390 23392 1 119.8800511 375.723200
23390 23392 23393 1 119.8800511 375.723200
23390 23392 23394 1 120.0200517 532.790560
23393 23392 23394 1 119.8800511 375.723200
23392 23394 23395 1 119.8800511 375.723200
23392 23394 23396 1 120.0200517 532.790560
23395 23394 23396 1 119.8800511 375.723200
23387 23396 23394 1 120.0200517 532.790560
23387 23396 23397 1 119.8800511 375.723200
23394 23396 23397 1 119.8800511 375.723200
23398 23399 23400 1 119.8800511 375.723200
23398 23399 23408 1 119.8800511 375.723200
23400 23399 23408 1 120.0200517 532.790560
23399 23400 23401 1 121.3800518 83.010560
23399 23400 23402 1 120.0200517 532.790560
23401 23400 23402 1 121.3800518 83.010560
5020 23401 7250 1 109.50000 418.400000
5020 23401 10124 1 109.50000 418.400000
5020 23401 23400 1 103.70004 836.800000
7250 23401 10124 1 109.50000 418.400000
7250 23401 23400 1 103.70004 836.800000
10124 23401 23400 1 103.70004 836.800000
23400 23402 23403 1 119.8800511 375.723200
23400 23402 23404 1 120.0200517 532.790560
23403 23402 23404 1 119.8800511 375.723200
23402 23404 23405 1 119.8800511 375.723200
23402 23404 23406 1 120.0200517 532.790560
23405 23404 23406 1 119.8800511 375.723200
23404 23406 23407 1 119.8800511 375.723200
23404 23406 23408 1 120.0200517 532.790560
23407 23406 23408 1 119.8800511 375.723200
23399 23408 23406 1 120.0200517 532.790560
23399 23408 23409 1 119.8800511 375.723200
23406 23408 23409 1 119.8800511 375.723200
23410 23411 23412 1 119.8800511 375.723200
23410 23411 23420 1 119.8800511 375.723200
23412 23411 23420 1 120.0200517 532.790560
23411 23412 23413 1 121.3800518 83.010560
23411 23412 23414 1 120.0200517 532.790560
23413 23412 23414 1 121.3800518 83.010560
2557 23413 2560 1 109.50000 418.400000
2557 23413 6335 1 109.50000 418.400000
2557 23413 23412 1 103.70004 836.800000
2560 23413 6335 1 109.50000 418.400000
2560 23413 23412 1 103.70004 836.800000
6335 23413 23412 1 103.70004 836.800000
23412 23414 23415 1 119.8800511 375.723200
23412 23414 23416 1 120.0200517 532.790560
23415 23414 23416 1 119.8800511 375.723200
23414 23416 23417 1 119.8800511 375.723200
23414 23416 23418 1 120.0200517 532.790560
23417 23416 23418 1 119.8800511 375.723200
23416 23418 23419 1 119.8800511 375.723200
23416 23418 23420 1 120.0200517 532.790560
23419 23418 23420 1 119.8800511 375.723200
23411 23420 23418 1 120.0200517 532.790560
23411 23420 23421 1 119.8800511 375.723200
23418 23420 23421 1 119.8800511 375.723200
23422 23423 23424 1 119.8800511 375.723200
23422 23423 23432 1 119.8800511 375.723200
23424 23423 23432 1 120.0200517 532.790560
23423 23424 23425 1 121.3800518 83.010560
23423 23424 23426 1 120.0200517 532.790560
23425 23424 23426 1 121.3800518 83.010560
8473 23425 8474 1 109.50000 418.400000
8473 23425 8829 1 109.50000 418.400000
8473 23425 23424 1 103.70004 836.800000
8474 23425 8829 1 109.50000 418.400000
8474 23425 23424 1 103.70004 836.800000
8829 23425 23424 1 103.70004 836.800000
23424 23426 23427 1 119.8800511 375.723200
23424 23426 23428 1 120.0200517 532.790560
23427 23426 23428 1 119.8800511 375.723200
23426 23428 23429 1 119.8800511 375.723200
23426 23428 23430 1 120.0200517 532.790560
23429 23428 23430 1 119.8800511 375.723200
23428 23430 23431 1 119.8800511 375.723200
23428 23430 23432 1 120.0200517 532.790560
23431 23430 23432 1 119.8800511 375.723200
23423 23432 23430 1 120.0200517 532.790560
23423 23432 23433 1 119.8800511 375.723200
23430 23432 23433 1 119.8800511 375.723200
23434 23435 23436 1 119.8800511 375.723200
23434 23435 23444 1 119.8800511 375.723200
23436 23435 23444 1 120.0200517 532.790560
23435 23436 23437 1 121.3800518 83.010560
23435 23436 23438 1 120.0200517 532.790560
23437 23436 23438 1 121.3800518 83.010560
7126 23437 7862 1 109.50000 418.400000
7126 23437 9673 1 109.50000 418.400000
7126 23437 23436 1 103.70004 836.800000
7862 23437 9673 1 109.50000 418.400000
7862 23437 23436 1 103.70004 836.800000
9673 23437 23436 1 103.70004 836.800000
23436 23438 23439 1 119.8800511 375.723200
23436 23438 23440 1 120.0200517 532.790560
23439 23438 23440 1 119.8800511 375.723200
23438 23440 23441 1 119.8800511 375.723200
23438 23440 23442 1 120.0200517 532.790560
23441 23440 23442 1 119.8800511 375.723200
23440 23442 23443 1 119.8800511 375.723200
23440 23442 23444 1 120.0200517 532.790560
23443 23442 23444 1 119.8800511 375.723200
23435 23444 23442 1 120.0200517 532.790560
23435 23444 23445 1 119.8800511 375.723200
23442 23444 23445 1 119.8800511 375.723200
23446 23447 23448 1 119.8800511 375.723200
23446 23447 23456 1 119.8800511 375.723200
23448 23447 23456 1 120.0200517 532.790560
23447 23448 23449 1 121.3800518 83.010560
23447 23448 23450 1 120.0200517 532.790560
23449 23448 23450 1 121.3800518 83.010560
5173 23449 5174 1 109.50000 418.400000
5173 23449 11171 1 109.50000 418.400000
5173 23449 23448 1 103.70004 836.800000
5174 23449 11171 1 109.50000 418.400000
5174 23449 23448 1 103.70004 836.800000
11171 23449 23448 1 103.70004 836.800000
23448 23450 23451 1 119.8800511 375.723200
23448 23450 23452 1 120.0200517 532.790560
23451 23450 23452 1 119.8800511 375.723200
23450 23452 23453 1 119.8800511 375.723200
23450 23452 23454 1 120.0200517 532.790560
23453 23452 23454 1 119.8800511 375.723200
23452 23454 23455 1 119.8800511 375.723200
23452 23454 23456 1 120.0200517 532.790560
23455 23454 23456 1 119.8800511 375.723200
23447 23456 23454 1 120.0200517 532.790560
23447 23456 23457 1 119.8800511 375.723200
23454 23456 23457 1 119.8800511 375.723200
23458 23459 23460 1 119.8800511 375.723200
23458 23459 23468 1 119.8800511 375.723200
23460 23459 23468 1 120.0200517 532.790560
23459 23460 23461 1 121.3800518 83.010560
23459 23460 23462 1 120.0200517 532.790560
23461 23460 23462 1 121.3800518 83.010560
4645 23461 8793 1 109.50000 418.400000
4645 23461 8794 1 109.50000 418.400000
4645 23461 23460 1 103.70004 836.800000
8793 23461 8794 1 109.50000 418.400000
8793 23461 23460 1 103.70004 836.800000
8794 23461 23460 1 103.70004 836.800000
23460 23462 23463 1 119.8800511 375.723200
23460 23462 23464 1 120.0200517 532.790560
23463 23462 23464 1 119.8800511 375.723200
23462 23464 23465 1 119.8800511 375.723200
23462 23464 23466 1 120.0200517 532.790560
23465 23464 23466 1 119.8800511 375.723200
23464 23466 23467 1 119.8800511 375.723200
23464 23466 23468 1 120.0200517 532.790560
23467 23466 23468 1 119.8800511 375.723200
23459 23468 23466 1 120.0200517 532.790560
23459 23468 23469 1 119.8800511 375.723200
23466 23468 23469 1 119.8800511 375.723200
23470 23471 23472 1 119.8800511 375.723200
23470 23471 23480 1 119.8800511 375.723200
23472 23471 23480 1 120.0200517 532.790560
23471 23472 23473 1 121.3800518 83.010560
23471 23472 23474 1 120.0200517 532.790560
23473 23472 23474 1 121.3800518 83.010560
775 23473 8265 1 109.50000 418.400000
775 23473 11211 1 109.50000 418.400000
775 23473 23472 1 103.70004 836.800000
8265 23473 11211 1 109.50000 418.400000
8265 23473 23472 1 103.70004 836.800000
11211 23473 23472 1 103.70004 836.800000
23472 23474 23475 1 119.8800511 375.723200
23472 23474 23476 1 120.0200517 532.790560
23475 23474 23476 1 119.8800511 375.723200
23474 23476 23477 1 119.8800511 375.723200
23474 23476 23478 1 120.0200517 532.790560
23477 23476 23478 1 119.8800511 375.723200
23476 23478 23479 1 119.8800511 375.723200
23476 23478 23480 1 120.0200517 532.790560
23479 23478 23480 1 119.8800511 375.723200
23471 23480 23478 1 120.0200517 532.790560
23471 23480 23481 1 119.8800511 375.723200
23478 23480 23481 1 119.8800511 375.723200
23482 23483 23484 1 119.8800511 375.723200
23482 23483 23492 1 119.8800511 375.723200
23484 23483 23492 1 120.0200517 532.790560
23483 23484 23485 1 121.3800518 83.010560
23483 23484 23486 1 120.0200517 532.790560
23485 23484 23486 1 121.3800518 83.010560
6314 23485 6315 1 109.50000 418.400000
6314 23485 11207 1 109.50000 418.400000
6314 23485 23484 1 103.70004 836.800000
6315 23485 11207 1 109.50000 418.400000
6315 23485 23484 1 103.70004 836.800000
11207 23485 23484 1 103.70004 836.800000
23484 23486 23487 1 119.8800511 375.723200
23484 23486 23488 1 120.0200517 532.790560
23487 23486 23488 1 119.8800511 375.723200
23486 23488 23489 1 119.8800511 375.723200
23486 23488 23490 1 120.0200517 532.790560
23489 23488 23490 1 119.8800511 375.723200
23488 23490 23491 1 119.8800511 375.723200
23488 23490 23492 1 120.0200517 532.790560
23491 23490 23492 1 119.8800511 375.723200
23483 23492 23490 1 120.0200517 532.790560
23483 23492 23493 1 119.8800511 375.723200
23490 23492 23493 1 119.8800511 375.723200
23494 23495 23496 1 119.8800511 375.723200
23494 23495 23504 1 119.8800511 375.723200
23496 23495 23504 1 120.0200517 532.790560
23495 23496 23497 1 121.3800518 83.010560
23495 23496 23498 1 120.0200517 532.790560
23497 23496 23498 1 121.3800518 83.010560
718 23497 4028 1 109.50000 418.400000
718 23497 4029 1 109.50000 418.400000
718 23497 23496 1 103.70004 836.800000
4028 23497 4029 1 109.50000 418.400000
4028 23497 23496 1 103.70004 836.800000
4029 23497 23496 1 103.70004 836.800000
23496 23498 23499 1 119.8800511 375.723200
23496 23498 23500 1 120.0200517 532.790560
23499 23498 23500 1 119.8800511 375.723200
23498 23500 23501 1 119.8800511 375.723200
23498 23500 23502 1 120.0200517 532.790560
23501 23500 23502 1 119.8800511 375.723200
23500 23502 23503 1 119.8800511 375.723200
23500 23502 23504 1 120.0200517 532.790560
23503 23502 23504 1 119.8800511 375.723200
23495 23504 23502 1 120.0200517 532.790560
23495 23504 23505 1 119.8800511 375.723200
23502 23504 23505 1 119.8800511 375.723200
23506 23507 23508 1 119.8800511 375.723200
23506 23507 23516 1 119.8800511 375.723200
23508 23507 23516 1 120.0200517 532.790560
23507 23508 23509 1 121.3800518 83.010560
23507 23508 23510 1 120.0200517 532.790560
23509 23508 23510 1 121.3800518 83.010560
3603 23509 5997 1 109.50000 418.400000
3603 23509 5998 1 109.50000 418.400000
3603 23509 23508 1 103.70004 836.800000
5997 23509 5998 1 109.50000 418.400000
5997 23509 23508 1 103.70004 836.800000
5998 23509 23508 1 103.70004 836.800000
23508 23510 23511 1 119.8800511 375.723200
23508 23510 23512 1 120.0200517 532.790560
23511 23510 23512 1 119.8800511 375.723200
23510 23512 23513 1 119.8800511 375.723200
23510 23512 23514 1 120.0200517 532.790560
23513 23512 23514 1 119.8800511 375.723200
23512 23514 23515 1 119.8800511 375.723200
23512 23514 23516 1 120.0200517 532.790560
23515 23514 23516 1 119.8800511 375.723200
23507 23516 23514 1 120.0200517 532.790560
23507 23516 23517 1 119.8800511 375.723200
23514 23516 23517 1 119.8800511 375.723200
23518 23519 23520 1 119.8800511 375.723200
23518 23519 23528 1 119.8800511 375.723200
23520 23519 23528 1 120.0200517 532.790560
23519 23520 23521 1 121.3800518 83.010560
23519 23520 23522 1 120.0200517 532.790560
23521 23520 23522 1 121.3800518 83.010560
521 23521 523 1 109.50000 418.400000
521 23521 2066 1 109.50000 418.400000
521 23521 23520 1 103.70004 836.800000
523 23521 2066 1 109.50000 418.400000
523 23521 23520 1 103.70004 836.800000
2066 23521 23520 1 103.70004 836.800000
23520 23522 23523 1 119.8800511 375.723200
23520 23522 23524 1 120.0200517 532.790560
23523 23522 23524 1 119.8800511 375.723200
23522 23524 23525 1 119.8800511 375.723200
23522 23524 23526 1 120.0200517 532.790560
23525 23524 23526 1 119.8800511 375.723200
23524 23526 23527 1 119.8800511 375.723200
23524 23526 23528 1 120.0200517 532.790560
23527 23526 23528 1 119.8800511 375.723200
23519 23528 23526 1 120.0200517 532.790560
23519 23528 23529 1 119.8800511 375.723200
23526 23528 23529 1 119.8800511 375.723200
23530 23531 23532 1 119.8800511 375.723200
23530 23531 23540 1 119.8800511 375.723200
23532 23531 23540 1 120.0200517 532.790560
23531 23532 23533 1 121.3800518 83.010560
23531 23532 23534 1 120.0200517 532.790560
23533 23532 23534 1 121.3800518 83.010560
6151 23533 8081 1 109.50000 418.400000
6151 23533 10148 1 109.50000 418.400000
6151 23533 23532 1 103.70004 836.800000
8081 23533 10148 1 109.50000 418.400000
8081 23533 23532 1 103.70004 836.800000
10148 23533 23532 1 103.70004 836.800000
23532 23534 23535 1 119.8800511 375.723200
23532 23534 23536 1 120.0200517 532.790560
23535 23534 23536 1 119.8800511 375.723200
23534 23536 23537 1 119.8800511 375.723200
23534 23536 23538 1 120.0200517 532.790560
23537 23536 23538 1 119.8800511 375.723200
23536 23538 23539 1 119.8800511 375.723200
23536 23538 23540 1 120.0200517 532.790560
23539 23538 23540 1 119.8800511 375.723200
23531 23540 23538 1 120.0200517 532.790560
23531 23540 23541 1 119.8800511 375.723200
23538 23540 23541 1 119.8800511 375.723200
23542 23543 23544 1 119.8800511 375.723200
23542 23543 23552 1 119.8800511 375.723200
23544 23543 23552 1 120.0200517 532.790560
23543 23544 23545 1 121.3800518 83.010560
23543 23544 23546 1 120.0200517 532.790560
23545 23544 23546 1 121.3800518 83.010560
2559 23545 2884 1 109.50000 418.400000
2559 23545 2885 1 109.50000 418.400000
2559 23545 23544 1 103.70004 836.800000
2884 23545 2885 1 109.50000 418.400000
2884 23545 23544 1 103.70004 836.800000
2885 23545 23544 1 103.70004 836.800000
23544 23546 23547 1 119.8800511 375.723200
23544 23546 23548 1 120.0200517 532.790560
23547 23546 23548 1 119.8800511 375.723200
23546 23548 23549 1 119.8800511 375.723200
23546 23548 23550 1 120.0200517 532.790560
23549 23548 23550 1 119.8800511 375.723200
23548 23550 23551 1 119.8800511 375.723200
23548 23550 23552 1 120.0200517 532.790560
23551 23550 23552 1 119.8800511 375.723200
23543 23552 23550 1 120.0200517 532.790560
23543 23552 23553 1 119.8800511 375.723200
23550 23552 23553 1 119.8800511 375.723200
23554 23555 23556 1 119.8800511 375.723200
23554 23555 23564 1 119.8800511 375.723200
23556 23555 23564 1 120.0200517 532.790560
23555 23556 23557 1 121.3800518 83.010560
23555 23556 23558 1 120.0200517 532.790560
23557 23556 23558 1 121.3800518 83.010560
2944 23557 2945 1 109.50000 418.400000
2944 23557 2946 1 109.50000 418.400000
2944 23557 23556 1 103.70004 836.800000
2945 23557 2946 1 109.50000 418.400000
2945 23557 23556 1 103.70004 836.800000
2946 23557 23556 1 103.70004 836.800000
23556 23558 23559 1 119.8800511 375.723200
23556 23558 23560 1 120.0200517 532.790560
23559 23558 23560 1 119.8800511 375.723200
23558 23560 23561 1 119.8800511 375.723200
23558 23560 23562 1 120.0200517 532.790560
23561 23560 23562 1 119.8800511 375.723200
23560 23562 23563 1 119.8800511 375.723200
23560 23562 23564 1 120.0200517 532.790560
23563 23562 23564 1 119.8800511 375.723200
23555 23564 23562 1 120.0200517 532.790560
23555 23564 23565 1 119.8800511 375.723200
23562 23564 23565 1 119.8800511 375.723200
23566 23567 23568 1 119.8800511 375.723200
23566 23567 23576 1 119.8800511 375.723200
23568 23567 23576 1 120.0200517 532.790560
23567 23568 23569 1 121.3800518 83.010560
23567 23568 23570 1 120.0200517 532.790560
23569 23568 23570 1 121.3800518 83.010560
2494 23569 6827 1 109.50000 418.400000
2494 23569 11199 1 109.50000 418.400000
2494 23569 23568 1 103.70004 836.800000
6827 23569 11199 1 109.50000 418.400000
6827 23569 23568 1 103.70004 836.800000
11199 23569 23568 1 103.70004 836.800000
23568 23570 23571 1 119.8800511 375.723200
23568 23570 23572 1 120.0200517 532.790560
23571 23570 23572 1 119.8800511 375.723200
23570 23572 23573 1 119.8800511 375.723200
23570 23572 23574 1 120.0200517 532.790560
23573 23572 23574 1 119.8800511 375.723200
23572 23574 23575 1 119.8800511 375.723200
23572 23574 23576 1 120.0200517 532.790560
23575 23574 23576 1 119.8800511 375.723200
23567 23576 23574 1 120.0200517 532.790560
23567 23576 23577 1 119.8800511 375.723200
23574 23576 23577 1 119.8800511 375.723200
23578 23579 23580 1 119.8800511 375.723200
23578 23579 23588 1 119.8800511 375.723200
23580 23579 23588 1 120.0200517 532.790560
23579 23580 23581 1 121.3800518 83.010560
23579 23580 23582 1 120.0200517 532.790560
23581 23580 23582 1 121.3800518 83.010560
5467 23581 5468 1 109.50000 418.400000
5467 23581 5469 1 109.50000 418.400000
5467 23581 23580 1 103.70004 836.800000
5468 23581 5469 1 109.50000 418.400000
5468 23581 23580 1 103.70004 836.800000
5469 23581 23580 1 103.70004 836.800000
23580 23582 23583 1 119.8800511 375.723200
23580 23582 23584 1 120.0200517 532.790560
23583 23582 23584 1 119.8800511 375.723200
23582 23584 23585 1 119.8800511 375.723200
23582 23584 23586 1 120.0200517 532.790560
23585 23584 23586 1 119.8800511 375.723200
23584 23586 23587 1 119.8800511 375.723200
23584 23586 23588 1 120.0200517 532.790560
23587 23586 23588 1 119.8800511 375.723200
23579 23588 23586 1 120.0200517 532.790560
23579 23588 23589 1 119.8800511 375.723200
23586 23588 23589 1 119.8800511 375.723200
23590 23591 23592 1 119.8800511 375.723200
23590 23591 23600 1 119.8800511 375.723200
23592 23591 23600 1 120.0200517 532.790560
23591 23592 23593 1 121.3800518 83.010560
23591 23592 23594 1 120.0200517 532.790560
23593 23592 23594 1 121.3800518 83.010560
3879 23593 3880 1 109.50000 418.400000
3879 23593 3881 1 109.50000 418.400000
3879 23593 23592 1 103.70004 836.800000
3880 23593 3881 1 109.50000 418.400000
3880 23593 23592 1 103.70004 836.800000
3881 23593 23592 1 103.70004 836.800000
23592 23594 23595 1 119.8800511 375.723200
23592 23594 23596 1 120.0200517 532.790560
23595 23594 23596 1 119.8800511 375.723200
23594 23596 23597 1 119.8800511 375.723200
23594 23596 23598 1 120.0200517 532.790560
23597 23596 23598 1 119.8800511 375.723200
23596 23598 23599 1 119.8800511 375.723200
23596 23598 23600 1 120.0200517 532.790560
23599 23598 23600 1 119.8800511 375.723200
23591 23600 23598 1 120.0200517 532.790560
23591 23600 23601 1 119.8800511 375.723200
23598 23600 23601 1 119.8800511 375.723200
19 23602 20 1 109.50000 418.400000
19 23602 21 1 109.50000 418.400000
19 23602 23603 1 109.50000 418.400000
20 23602 21 1 109.50000 418.400000
20 23602 23603 1 109.50000 418.400000
21 23602 23603 1 109.50000 418.400000
23602 23603 23604 1 115.00000 209.200000
90 23605 91 1 109.50000 418.400000
90 23605 92 1 109.50000 418.400000
90 23605 23606 1 109.50000 418.400000
91 23605 92 1 109.50000 418.400000
91 23605 23606 1 109.50000 418.400000
92 23605 23606 1 109.50000 418.400000
23605 23606 23607 1 115.00000 209.200000
232 23608 233 1 109.50000 418.400000
232 23608 234 1 109.50000 418.400000
232 23608 23609 1 109.50000 418.400000
233 23608 234 1 109.50000 418.400000
233 23608 23609 1 109.50000 418.400000
234 23608 23609 1 109.50000 418.400000
23608 23609 23610 1 115.00000 209.200000
239 23611 240 1 109.50000 418.400000
239 23611 241 1 109.50000 418.400000
239 23611 23612 1 109.50000 418.400000
240 23611 241 1 109.50000 418.400000
240 23611 23612 1 109.50000 418.400000
241 23611 23612 1 109.50000 418.400000
23611 23612 23613 1 115.00000 209.200000
283 23614 284 1 109.50000 418.400000
283 23614 285 1 109.50000 418.400000
283 23614 23615 1 109.50000 418.400000
284 23614 285 1 109.50000 418.400000
284 23614 23615 1 109.50000 418.400000
285 23614 23615 1 109.50000 418.400000
23614 23615 23616 1 115.00000 209.200000
350 23617 351 1 109.50000 418.400000
350 23617 6650 1 109.50000 418.400000
350 23617 23618 1 109.50000 418.400000
351 23617 6650 1 109.50000 418.400000
351 23617 23618 1 109.50000 418.400000
6650 23617 23618 1 109.50000 418.400000
23617 23618 23619 1 115.00000 209.200000
669 23620 670 1 109.50000 418.400000
669 23620 10239 1 109.50000 418.400000
669 23620 23621 1 109.50000 418.400000
670 23620 10239 1 109.50000 418.400000
670 23620 23621 1 109.50000 418.400000
10239 23620 23621 1 109.50000 418.400000
23620 23621 23622 1 115.00000 209.200000
722 23623 8412 1 109.50000 418.400000
722 23623 11167 1 109.50000 418.400000
722 23623 23624 1 109.50000 418.400000
8412 23623 11167 1 109.50000 418.400000
8412 23623 23624 1 109.50000 418.400000
11167 23623 23624 1 109.50000 418.400000
23623 23624 23625 1 115.00000 209.200000
790 23626 791 1 109.50000 418.400000
790 23626 792 1 109.50000 418.400000
790 23626 23627 1 109.50000 418.400000
791 23626 792 1 109.50000 418.400000
791 23626 23627 1 109.50000 418.400000
792 23626 23627 1 109.50000 418.400000
23626 23627 23628 1 115.00000 209.200000
837 23629 838 1 109.50000 418.400000
837 23629 839 1 109.50000 418.400000
837 23629 23630 1 109.50000 418.400000
838 23629 839 1 109.50000 418.400000
838 23629 23630 1 109.50000 418.400000
839 23629 23630 1 109.50000 418.400000
23629 23630 23631 1 115.00000 209.200000
978 23632 979 1 109.50000 418.400000
978 23632 980 1 109.50000 418.400000
978 23632 23633 1 109.50000 418.400000
979 23632 980 1 109.50000 418.400000
979 23632 23633 1 109.50000 418.400000
980 23632 23633 1 109.50000 418.400000
23632 23633 23634 1 115.00000 209.200000
1034 23635 1035 1 109.50000 418.400000
1034 23635 5178 1 109.50000 418.400000
1034 23635 23636 1 109.50000 418.400000
1035 23635 5178 1 109.50000 418.400000
1035 23635 23636 1 109.50000 418.400000
5178 23635 23636 1 109.50000 418.400000
23635 23636 23637 1 115.00000 209.200000
1222 23638 1223 1 109.50000 418.400000
1222 23638 1224 1 109.50000 418.400000
1222 23638 23639 1 109.50000 418.400000
1223 23638 1224 1 109.50000 418.400000
1223 23638 23639 1 109.50000 418.400000
1224 23638 23639 1 109.50000 418.400000
23638 23639 23640 1 115.00000 209.200000
1380 23641 1381 1 109.50000 418.400000
1380 23641 1382 1 109.50000 418.400000
1380 23641 23642 1 109.50000 418.400000
1381 23641 1382 1 109.50000 418.400000
1381 23641 23642 1 109.50000 418.400000
1382 23641 23642 1 109.50000 418.400000
23641 23642 23643 1 115.00000 209.200000
1387 23644 1388 1 109.50000 418.400000
1387 23644 1389 1 109.50000 418.400000
1387 23644 23645 1 109.50000 418.400000
1388 23644 1389 1 109.50000 418.400000
1388 23644 23645 1 109.50000 418.400000
1389 23644 23645 1 109.50000 418.400000
23644 23645 23646 1 115.00000 209.200000
1541 23647 1542 1 109.50000 418.400000
1541 23647 11184 1 109.50000 418.400000
1541 23647 23648 1 109.50000 418.400000
1542 23647 11184 1 109.50000 418.400000
1542 23647 23648 1 109.50000 418.400000
11184 23647 23648 1 109.50000 418.400000
23647 23648 23649 1 115.00000 209.200000
1634 23650 1635 1 109.50000 418.400000
1634 23650 1636 1 109.50000 418.400000
1634 23650 23651 1 109.50000 418.400000
1635 23650 1636 1 109.50000 418.400000
1635 23650 23651 1 109.50000 418.400000
1636 23650 23651 1 109.50000 418.400000
23650 23651 23652 1 115.00000 209.200000
1687 23653 1688 1 109.50000 418.400000
1687 23653 8376 1 109.50000 418.400000
1687 23653 23654 1 109.50000 418.400000
1688 23653 8376 1 109.50000 418.400000
1688 23653 23654 1 109.50000 418.400000
8376 23653 23654 1 109.50000 418.400000
23653 23654 23655 1 115.00000 209.200000
1036 23656 1073 1 109.50000 418.400000
1036 23656 1727 1 109.50000 418.400000
1036 23656 23657 1 109.50000 418.400000
1073 23656 1727 1 109.50000 418.400000
1073 23656 23657 1 109.50000 418.400000
1727 23656 23657 1 109.50000 418.400000
23656 23657 23658 1 115.00000 209.200000
1751 23659 1752 1 109.50000 418.400000
1751 23659 1753 1 109.50000 418.400000
1751 23659 23660 1 109.50000 418.400000
1752 23659 1753 1 109.50000 418.400000
1752 23659 23660 1 109.50000 418.400000
1753 23659 23660 1 109.50000 418.400000
23659 23660 23661 1 115.00000 209.200000
1258 23662 1776 1 109.50000 418.400000
1258 23662 1777 1 109.50000 418.400000
1258 23662 23663 1 109.50000 418.400000
1776 23662 1777 1 109.50000 418.400000
1776 23662 23663 1 109.50000 418.400000
1777 23662 23663 1 109.50000 418.400000
23662 23663 23664 1 115.00000 209.200000
1889 23665 1890 1 109.50000 418.400000
1889 23665 1891 1 109.50000 418.400000
1889 23665 23666 1 109.50000 418.400000
1890 23665 1891 1 109.50000 418.400000
1890 23665 23666 1 109.50000 418.400000
1891 23665 23666 1 109.50000 418.400000
23665 23666 23667 1 115.00000 209.200000
1896 23668 1897 1 109.50000 418.400000
1896 23668 3832 1 109.50000 418.400000
1896 23668 23669 1 109.50000 418.400000
1897 23668 3832 1 109.50000 418.400000
1897 23668 23669 1 109.50000 418.400000
3832 23668 23669 1 109.50000 418.400000
23668 23669 23670 1 115.00000 209.200000
255 23671 2027 1 109.50000 418.400000
255 23671 2028 1 109.50000 418.400000
255 23671 23672 1 109.50000 418.400000
2027 23671 2028 1 109.50000 418.400000
2027 23671 23672 1 109.50000 418.400000
2028 23671 23672 1 109.50000 418.400000
23671 23672 23673 1 115.00000 209.200000
2046 23674 2047 1 109.50000 418.400000
2046 23674 2048 1 109.50000 418.400000
2046 23674 23675 1 109.50000 418.400000
2047 23674 2048 1 109.50000 418.400000
2047 23674 23675 1 109.50000 418.400000
2048 23674 23675 1 109.50000 418.400000
23674 23675 23676 1 115.00000 209.200000
2107 23677 2108 1 109.50000 418.400000
2107 23677 11251 1 109.50000 418.400000
2107 23677 23678 1 109.50000 418.400000
2108 23677 11251 1 109.50000 418.400000
2108 23677 23678 1 109.50000 418.400000
11251 23677 23678 1 109.50000 418.400000
23677 23678 23679 1 115.00000 209.200000
1566 23680 2159 1 109.50000 418.400000
1566 23680 2160 1 109.50000 418.400000
1566 23680 23681 1 109.50000 418.400000
2159 23680 2160 1 109.50000 418.400000
2159 23680 23681 1 109.50000 418.400000
2160 23680 23681 1 109.50000 418.400000
23680 23681 23682 1 115.00000 209.200000
2165 23683 2166 1 109.50000 418.400000
2165 23683 9001 1 109.50000 418.400000
2165 23683 23684 1 109.50000 418.400000
2166 23683 9001 1 109.50000 418.400000
2166 23683 23684 1 109.50000 418.400000
9001 23683 23684 1 109.50000 418.400000
23683 23684 23685 1 115.00000 209.200000
1022 23686 2429 1 109.50000 418.400000
1022 23686 2430 1 109.50000 418.400000
1022 23686 23687 1 109.50000 418.400000
2429 23686 2430 1 109.50000 418.400000
2429 23686 23687 1 109.50000 418.400000
2430 23686 23687 1 109.50000 418.400000
23686 23687 23688 1 115.00000 209.200000
260 23689 2431 1 109.50000 418.400000
260 23689 2433 1 109.50000 418.400000
260 23689 23690 1 109.50000 418.400000
2431 23689 2433 1 109.50000 418.400000
2431 23689 23690 1 109.50000 418.400000
2433 23689 23690 1 109.50000 418.400000
23689 23690 23691 1 115.00000 209.200000
2450 23692 2451 1 109.50000 418.400000
2450 23692 2452 1 109.50000 418.400000
2450 23692 23693 1 109.50000 418.400000
2451 23692 2452 1 109.50000 418.400000
2451 23692 23693 1 109.50000 418.400000
2452 23692 23693 1 109.50000 418.400000
23692 23693 23694 1 115.00000 209.200000
2493 23695 2494 1 109.50000 418.400000
2493 23695 2495 1 109.50000 418.400000
2493 23695 23696 1 109.50000 418.400000
2494 23695 2495 1 109.50000 418.400000
2494 23695 23696 1 109.50000 418.400000
2495 23695 23696 1 109.50000 418.400000
23695 23696 23697 1 115.00000 209.200000
1325 23698 2581 1 109.50000 418.400000
1325 23698 2582 1 109.50000 418.400000
1325 23698 23699 1 109.50000 418.400000
2581 23698 2582 1 109.50000 418.400000
2581 23698 23699 1 109.50000 418.400000
2582 23698 23699 1 109.50000 418.400000
23698 23699 23700 1 115.00000 209.200000
2589 23701 2590 1 109.50000 418.400000
2589 23701 2591 1 109.50000 418.400000
2589 23701 23702 1 109.50000 418.400000
2590 23701 2591 1 109.50000 418.400000
2590 23701 23702 1 109.50000 418.400000
2591 23701 23702 1 109.50000 418.400000
23701 23702 23703 1 115.00000 209.200000
895 23704 2602 1 109.50000 418.400000
895 23704 2603 1 109.50000 418.400000
895 23704 23705 1 109.50000 418.400000
2602 23704 2603 1 109.50000 418.400000
2602 23704 23705 1 109.50000 418.400000
2603 23704 23705 1 109.50000 418.400000
23704 23705 23706 1 115.00000 209.200000
2623 23707 2624 1 109.50000 418.400000
2623 23707 11138 1 109.50000 418.400000
2623 23707 23708 1 109.50000 418.400000
2624 23707 11138 1 109.50000 418.400000
2624 23707 23708 1 109.50000 418.400000
11138 23707 23708 1 109.50000 418.400000
23707 23708 23709 1 115.00000 209.200000
2696 23710 2697 1 109.50000 418.400000
2696 23710 2698 1 109.50000 418.400000
2696 23710 23711 1 109.50000 418.400000
2697 23710 2698 1 109.50000 418.400000
2697 23710 23711 1 109.50000 418.400000
2698 23710 23711 1 109.50000 418.400000
23710 23711 23712 1 115.00000 209.200000
2889 23713 2890 1 109.50000 418.400000
2889 23713 2891 1 109.50000 418.400000
2889 23713 23714 1 109.50000 418.400000
2890 23713 2891 1 109.50000 418.400000
2890 23713 23714 1 109.50000 418.400000
2891 23713 23714 1 109.50000 418.400000
23713 23714 23715 1 115.00000 209.200000
2506 23716 2921 1 109.50000 418.400000
2506 23716 2922 1 109.50000 418.400000
2506 23716 23717 1 109.50000 418.400000
2921 23716 2922 1 109.50000 418.400000
2921 23716 23717 1 109.50000 418.400000
2922 23716 23717 1 109.50000 418.400000
23716 23717 23718 1 115.00000 209.200000
579 23719 3434 1 109.50000 418.400000
579 23719 5660 1 109.50000 418.400000
579 23719 23720 1 109.50000 418.400000
3434 23719 5660 1 109.50000 418.400000
3434 23719 23720 1 109.50000 418.400000
5660 23719 23720 1 109.50000 418.400000
23719 23720 23721 1 115.00000 209.200000
440 23722 3109 1 109.50000 418.400000
440 23722 10195 1 109.50000 418.400000
440 23722 23723 1 109.50000 418.400000
3109 23722 10195 1 109.50000 418.400000
3109 23722 23723 1 109.50000 418.400000
10195 23722 23723 1 109.50000 418.400000
23722 23723 23724 1 115.00000 209.200000
3119 23725 3120 1 109.50000 418.400000
3119 23725 3121 1 109.50000 418.400000
3119 23725 23726 1 109.50000 418.400000
3120 23725 3121 1 109.50000 418.400000
3120 23725 23726 1 109.50000 418.400000
3121 23725 23726 1 109.50000 418.400000
23725 23726 23727 1 115.00000 209.200000
3188 23728 3189 1 109.50000 418.400000
3188 23728 3248 1 109.50000 418.400000
3188 23728 23729 1 109.50000 418.400000
3189 23728 3248 1 109.50000 418.400000
3189 23728 23729 1 109.50000 418.400000
3248 23728 23729 1 109.50000 418.400000
23728 23729 23730 1 115.00000 209.200000
146 23731 3282 1 109.50000 418.400000
146 23731 3283 1 109.50000 418.400000
146 23731 23732 1 109.50000 418.400000
3282 23731 3283 1 109.50000 418.400000
3282 23731 23732 1 109.50000 418.400000
3283 23731 23732 1 109.50000 418.400000
23731 23732 23733 1 115.00000 209.200000
3351 23734 3352 1 109.50000 418.400000
3351 23734 3353 1 109.50000 418.400000
3351 23734 23735 1 109.50000 418.400000
3352 23734 3353 1 109.50000 418.400000
3352 23734 23735 1 109.50000 418.400000
3353 23734 23735 1 109.50000 418.400000
23734 23735 23736 1 115.00000 209.200000
3379 23737 3380 1 109.50000 418.400000
3379 23737 11248 1 109.50000 418.400000
3379 23737 23738 1 109.50000 418.400000
3380 23737 11248 1 109.50000 418.400000
3380 23737 23738 1 109.50000 418.400000
11248 23737 23738 1 109.50000 418.400000
23737 23738 23739 1 115.00000 209.200000
3417 23740 3418 1 109.50000 418.400000
3417 23740 3419 1 109.50000 418.400000
3417 23740 23741 1 109.50000 418.400000
3418 23740 3419 1 109.50000 418.400000
3418 23740 23741 1 109.50000 418.400000
3419 23740 23741 1 109.50000 418.400000
23740 23741 23742 1 115.00000 209.200000
3486 23743 3487 1 109.50000 418.400000
3486 23743 3488 1 109.50000 418.400000
3486 23743 23744 1 109.50000 418.400000
3487 23743 3488 1 109.50000 418.400000
3487 23743 23744 1 109.50000 418.400000
3488 23743 23744 1 109.50000 418.400000
23743 23744 23745 1 115.00000 209.200000
3525 23746 3526 1 109.50000 418.400000
3525 23746 3527 1 109.50000 418.400000
3525 23746 23747 1 109.50000 418.400000
3526 23746 3527 1 109.50000 418.400000
3526 23746 23747 1 109.50000 418.400000
3527 23746 23747 1 109.50000 418.400000
23746 23747 23748 1 115.00000 209.200000
3559 23749 3560 1 109.50000 418.400000
3559 23749 3561 1 109.50000 418.400000
3559 23749 23750 1 109.50000 418.400000
3560 23749 3561 1 109.50000 418.400000
3560 23749 23750 1 109.50000 418.400000
3561 23749 23750 1 109.50000 418.400000
23749 23750 23751 1 115.00000 209.200000
3566 23752 3567 1 109.50000 418.400000
3566 23752 3568 1 109.50000 418.400000
3566 23752 23753 1 109.50000 418.400000
3567 23752 3568 1 109.50000 418.400000
3567 23752 23753 1 109.50000 418.400000
3568 23752 23753 1 109.50000 418.400000
23752 23753 23754 1 115.00000 209.200000
3676 23755 3677 1 109.50000 418.400000
3676 23755 11176 1 109.50000 418.400000
3676 23755 23756 1 109.50000 418.400000
3677 23755 11176 1 109.50000 418.400000
3677 23755 23756 1 109.50000 418.400000
11176 23755 23756 1 109.50000 418.400000
23755 23756 23757 1 115.00000 209.200000
2095 23758 3736 1 109.50000 418.400000
2095 23758 3737 1 109.50000 418.400000
2095 23758 23759 1 109.50000 418.400000
3736 23758 3737 1 109.50000 418.400000
3736 23758 23759 1 109.50000 418.400000
3737 23758 23759 1 109.50000 418.400000
23758 23759 23760 1 115.00000 209.200000
2097 23761 3877 1 109.50000 418.400000
2097 23761 3878 1 109.50000 418.400000
2097 23761 23762 1 109.50000 418.400000
3877 23761 3878 1 109.50000 418.400000
3877 23761 23762 1 109.50000 418.400000
3878 23761 23762 1 109.50000 418.400000
23761 23762 23763 1 115.00000 209.200000
168 23764 4102 1 109.50000 418.400000
168 23764 4103 1 109.50000 418.400000
168 23764 23765 1 109.50000 418.400000
4102 23764 4103 1 109.50000 418.400000
4102 23764 23765 1 109.50000 418.400000
4103 23764 23765 1 109.50000 418.400000
23764 23765 23766 1 115.00000 209.200000
2490 23767 2492 1 109.50000 418.400000
2490 23767 4374 1 109.50000 418.400000
2490 23767 23768 1 109.50000 418.400000
2492 23767 4374 1 109.50000 418.400000
2492 23767 23768 1 109.50000 418.400000
4374 23767 23768 1 109.50000 418.400000
23767 23768 23769 1 115.00000 209.200000
4432 23770 4433 1 109.50000 418.400000
4432 23770 4434 1 109.50000 418.400000
4432 23770 23771 1 109.50000 418.400000
4433 23770 4434 1 109.50000 418.400000
4433 23770 23771 1 109.50000 418.400000
4434 23770 23771 1 109.50000 418.400000
23770 23771 23772 1 115.00000 209.200000
4511 23773 4512 1 109.50000 418.400000
4511 23773 4513 1 109.50000 418.400000
4511 23773 23774 1 109.50000 418.400000
4512 23773 4513 1 109.50000 418.400000
4512 23773 23774 1 109.50000 418.400000
4513 23773 23774 1 109.50000 418.400000
23773 23774 23775 1 115.00000 209.200000
4515 23776 4516 1 109.50000 418.400000
4515 23776 4517 1 109.50000 418.400000
4515 23776 23777 1 109.50000 418.400000
4516 23776 4517 1 109.50000 418.400000
4516 23776 23777 1 109.50000 418.400000
4517 23776 23777 1 109.50000 418.400000
23776 23777 23778 1 115.00000 209.200000
4636 23779 4637 1 109.50000 418.400000
4636 23779 4638 1 109.50000 418.400000
4636 23779 23780 1 109.50000 418.400000
4637 23779 4638 1 109.50000 418.400000
4637 23779 23780 1 109.50000 418.400000
4638 23779 23780 1 109.50000 418.400000
23779 23780 23781 1 115.00000 209.200000
4691 23782 4692 1 109.50000 418.400000
4691 23782 4693 1 109.50000 418.400000
4691 23782 23783 1 109.50000 418.400000
4692 23782 4693 1 109.50000 418.400000
4692 23782 23783 1 109.50000 418.400000
4693 23782 23783 1 109.50000 418.400000
23782 23783 23784 1 115.00000 209.200000
519 23785 4736 1 109.50000 418.400000
519 23785 4737 1 109.50000 418.400000
519 23785 23786 1 109.50000 418.400000
4736 23785 4737 1 109.50000 418.400000
4736 23785 23786 1 109.50000 418.400000
4737 23785 23786 1 109.50000 418.400000
23785 23786 23787 1 115.00000 209.200000
2021 23788 4789 1 109.50000 418.400000
2021 23788 6116 1 109.50000 418.400000
2021 23788 23789 1 109.50000 418.400000
4789 23788 6116 1 109.50000 418.400000
4789 23788 23789 1 109.50000 418.400000
6116 23788 23789 1 109.50000 418.400000
23788 23789 23790 1 115.00000 209.200000
4810 23791 4812 1 109.50000 418.400000
4810 23791 8212 1 109.50000 418.400000
4810 23791 23792 1 109.50000 418.400000
4812 23791 8212 1 109.50000 418.400000
4812 23791 23792 1 109.50000 418.400000
8212 23791 23792 1 109.50000 418.400000
23791 23792 23793 1 115.00000 209.200000
2324 23794 3904 1 109.50000 418.400000
2324 23794 4792 1 109.50000 418.400000
2324 23794 23795 1 109.50000 418.400000
3904 23794 4792 1 109.50000 418.400000
3904 23794 23795 1 109.50000 418.400000
4792 23794 23795 1 109.50000 418.400000
23794 23795 23796 1 115.00000 209.200000
4895 23797 4896 1 109.50000 418.400000
4895 23797 11208 1 109.50000 418.400000
4895 23797 23798 1 109.50000 418.400000
4896 23797 11208 1 109.50000 418.400000
4896 23797 23798 1 109.50000 418.400000
11208 23797 23798 1 109.50000 418.400000
23797 23798 23799 1 115.00000 209.200000
4900 23800 4901 1 109.50000 418.400000
4900 23800 8815 1 109.50000 418.400000
4900 23800 23801 1 109.50000 418.400000
4901 23800 8815 1 109.50000 418.400000
4901 23800 23801 1 109.50000 418.400000
8815 23800 23801 1 109.50000 418.400000
23800 23801 23802 1 115.00000 209.200000
2297 23803 2633 1 109.50000 418.400000
2297 23803 4932 1 109.50000 418.400000
2297 23803 23804 1 109.50000 418.400000
2633 23803 4932 1 109.50000 418.400000
2633 23803 23804 1 109.50000 418.400000
4932 23803 23804 1 109.50000 418.400000
23803 23804 23805 1 115.00000 209.200000
1643 23806 5134 1 109.50000 418.400000
1643 23806 5221 1 109.50000 418.400000
1643 23806 23807 1 109.50000 418.400000
5134 23806 5221 1 109.50000 418.400000
5134 23806 23807 1 109.50000 418.400000
5221 23806 23807 1 109.50000 418.400000
23806 23807 23808 1 115.00000 209.200000
5171 23809 5287 1 109.50000 418.400000
5171 23809 5288 1 109.50000 418.400000
5171 23809 23810 1 109.50000 418.400000
5287 23809 5288 1 109.50000 418.400000
5287 23809 23810 1 109.50000 418.400000
5288 23809 23810 1 109.50000 418.400000
23809 23810 23811 1 115.00000 209.200000
5324 23812 5325 1 109.50000 418.400000
5324 23812 11192 1 109.50000 418.400000
5324 23812 23813 1 109.50000 418.400000
5325 23812 11192 1 109.50000 418.400000
5325 23812 23813 1 109.50000 418.400000
11192 23812 23813 1 109.50000 418.400000
23812 23813 23814 1 115.00000 209.200000
940 23815 5352 1 109.50000 418.400000
940 23815 11218 1 109.50000 418.400000
940 23815 23816 1 109.50000 418.400000
5352 23815 11218 1 109.50000 418.400000
5352 23815 23816 1 109.50000 418.400000
11218 23815 23816 1 109.50000 418.400000
23815 23816 23817 1 115.00000 209.200000
3034 23818 4956 1 109.50000 418.400000
3034 23818 5353 1 109.50000 418.400000
3034 23818 23819 1 109.50000 418.400000
4956 23818 5353 1 109.50000 418.400000
4956 23818 23819 1 109.50000 418.400000
5353 23818 23819 1 109.50000 418.400000
23818 23819 23820 1 115.00000 209.200000
5415 23821 5416 1 109.50000 418.400000
5415 23821 10084 1 109.50000 418.400000
5415 23821 23822 1 109.50000 418.400000
5416 23821 10084 1 109.50000 418.400000
5416 23821 23822 1 109.50000 418.400000
10084 23821 23822 1 109.50000 418.400000
23821 23822 23823 1 115.00000 209.200000
4589 23824 5472 1 109.50000 418.400000
4589 23824 5473 1 109.50000 418.400000
4589 23824 23825 1 109.50000 418.400000
5472 23824 5473 1 109.50000 418.400000
5472 23824 23825 1 109.50000 418.400000
5473 23824 23825 1 109.50000 418.400000
23824 23825 23826 1 115.00000 209.200000
1387 23827 3539 1 109.50000 418.400000
1387 23827 5516 1 109.50000 418.400000
1387 23827 23828 1 109.50000 418.400000
3539 23827 5516 1 109.50000 418.400000
3539 23827 23828 1 109.50000 418.400000
5516 23827 23828 1 109.50000 418.400000
23827 23828 23829 1 115.00000 209.200000
5172 23830 5526 1 109.50000 418.400000
5172 23830 5527 1 109.50000 418.400000
5172 23830 23831 1 109.50000 418.400000
5526 23830 5527 1 109.50000 418.400000
5526 23830 23831 1 109.50000 418.400000
5527 23830 23831 1 109.50000 418.400000
23830 23831 23832 1 115.00000 209.200000
1329 23833 1330 1 109.50000 418.400000
1329 23833 2716 1 109.50000 418.400000
1329 23833 23834 1 109.50000 418.400000
1330 23833 2716 1 109.50000 418.400000
1330 23833 23834 1 109.50000 418.400000
2716 23833 23834 1 109.50000 418.400000
23833 23834 23835 1 115.00000 209.200000
5506 23836 5579 1 109.50000 418.400000
5506 23836 5581 1 109.50000 418.400000
5506 23836 23837 1 109.50000 418.400000
5579 23836 5581 1 109.50000 418.400000
5579 23836 23837 1 109.50000 418.400000
5581 23836 23837 1 109.50000 418.400000
23836 23837 23838 1 115.00000 209.200000
4184 23839 5630 1 109.50000 418.400000
4184 23839 7614 1 109.50000 418.400000
4184 23839 23840 1 109.50000 418.400000
5630 23839 7614 1 109.50000 418.400000
5630 23839 23840 1 109.50000 418.400000
7614 23839 23840 1 109.50000 418.400000
23839 23840 23841 1 115.00000 209.200000
4338 23842 5737 1 109.50000 418.400000
4338 23842 11232 1 109.50000 418.400000
4338 23842 23843 1 109.50000 418.400000
5737 23842 11232 1 109.50000 418.400000
5737 23842 23843 1 109.50000 418.400000
11232 23842 23843 1 109.50000 418.400000
23842 23843 23844 1 115.00000 209.200000
980 23845 4224 1 109.50000 418.400000
980 23845 5829 1 109.50000 418.400000
980 23845 23846 1 109.50000 418.400000
4224 23845 5829 1 109.50000 418.400000
4224 23845 23846 1 109.50000 418.400000
5829 23845 23846 1 109.50000 418.400000
23845 23846 23847 1 115.00000 209.200000
4111 23848 5830 1 109.50000 418.400000
4111 23848 11233 1 109.50000 418.400000
4111 23848 23849 1 109.50000 418.400000
5830 23848 11233 1 109.50000 418.400000
5830 23848 23849 1 109.50000 418.400000
11233 23848 23849 1 109.50000 418.400000
23848 23849 23850 1 115.00000 209.200000
3358 23851 5974 1 109.50000 418.400000
3358 23851 5975 1 109.50000 418.400000
3358 23851 23852 1 109.50000 418.400000
5974 23851 5975 1 109.50000 418.400000
5974 23851 23852 1 109.50000 418.400000
5975 23851 23852 1 109.50000 418.400000
23851 23852 23853 1 115.00000 209.200000
1148 23854 6026 1 109.50000 418.400000
1148 23854 6027 1 109.50000 418.400000
1148 23854 23855 1 109.50000 418.400000
6026 23854 6027 1 109.50000 418.400000
6026 23854 23855 1 109.50000 418.400000
6027 23854 23855 1 109.50000 418.400000
23854 23855 23856 1 115.00000 209.200000
6088 23857 6089 1 109.50000 418.400000
6088 23857 8294 1 109.50000 418.400000
6088 23857 23858 1 109.50000 418.400000
6089 23857 8294 1 109.50000 418.400000
6089 23857 23858 1 109.50000 418.400000
8294 23857 23858 1 109.50000 418.400000
23857 23858 23859 1 115.00000 209.200000
1369 23860 6163 1 109.50000 418.400000
1369 23860 6164 1 109.50000 418.400000
1369 23860 23861 1 109.50000 418.400000
6163 23860 6164 1 109.50000 418.400000
6163 23860 23861 1 109.50000 418.400000
6164 23860 23861 1 109.50000 418.400000
23860 23861 23862 1 115.00000 209.200000
5498 23863 6229 1 109.50000 418.400000
5498 23863 11139 1 109.50000 418.400000
5498 23863 23864 1 109.50000 418.400000
6229 23863 11139 1 109.50000 418.400000
6229 23863 23864 1 109.50000 418.400000
11139 23863 23864 1 109.50000 418.400000
23863 23864 23865 1 115.00000 209.200000
6230 23866 6231 1 109.50000 418.400000
6230 23866 6232 1 109.50000 418.400000
6230 23866 23867 1 109.50000 418.400000
6231 23866 6232 1 109.50000 418.400000
6231 23866 23867 1 109.50000 418.400000
6232 23866 23867 1 109.50000 418.400000
23866 23867 23868 1 115.00000 209.200000
5000 23869 6267 1 109.50000 418.400000
5000 23869 11244 1 109.50000 418.400000
5000 23869 23870 1 109.50000 418.400000
6267 23869 11244 1 109.50000 418.400000
6267 23869 23870 1 109.50000 418.400000
11244 23869 23870 1 109.50000 418.400000
23869 23870 23871 1 115.00000 209.200000
6350 23872 6351 1 109.50000 418.400000
6350 23872 11150 1 109.50000 418.400000
6350 23872 23873 1 109.50000 418.400000
6351 23872 11150 1 109.50000 418.400000
6351 23872 23873 1 109.50000 418.400000
11150 23872 23873 1 109.50000 418.400000
23872 23873 23874 1 115.00000 209.200000
6378 23875 6379 1 109.50000 418.400000
6378 23875 6380 1 109.50000 418.400000
6378 23875 23876 1 109.50000 418.400000
6379 23875 6380 1 109.50000 418.400000
6379 23875 23876 1 109.50000 418.400000
6380 23875 23876 1 109.50000 418.400000
23875 23876 23877 1 115.00000 209.200000
2730 23878 6385 1 109.50000 418.400000
2730 23878 6386 1 109.50000 418.400000
2730 23878 23879 1 109.50000 418.400000
6385 23878 6386 1 109.50000 418.400000
6385 23878 23879 1 109.50000 418.400000
6386 23878 23879 1 109.50000 418.400000
23878 23879 23880 1 115.00000 209.200000
4937 23881 6525 1 109.50000 418.400000
4937 23881 10238 1 109.50000 418.400000
4937 23881 23882 1 109.50000 418.400000
6525 23881 10238 1 109.50000 418.400000
6525 23881 23882 1 109.50000 418.400000
10238 23881 23882 1 109.50000 418.400000
23881 23882 23883 1 115.00000 209.200000
4777 23884 5251 1 109.50000 418.400000
4777 23884 6526 1 109.50000 418.400000
4777 23884 23885 1 109.50000 418.400000
5251 23884 6526 1 109.50000 418.400000
5251 23884 23885 1 109.50000 418.400000
6526 23884 23885 1 109.50000 418.400000
23884 23885 23886 1 115.00000 209.200000
6566 23887 6567 1 109.50000 418.400000
6566 23887 6568 1 109.50000 418.400000
6566 23887 23888 1 109.50000 418.400000
6567 23887 6568 1 109.50000 418.400000
6567 23887 23888 1 109.50000 418.400000
6568 23887 23888 1 109.50000 418.400000
23887 23888 23889 1 115.00000 209.200000
6648 23890 6649 1 109.50000 418.400000
6648 23890 6650 1 109.50000 418.400000
6648 23890 23891 1 109.50000 418.400000
6649 23890 6650 1 109.50000 418.400000
6649 23890 23891 1 109.50000 418.400000
6650 23890 23891 1 109.50000 418.400000
23890 23891 23892 1 115.00000 209.200000
30 23893 3779 1 109.50000 418.400000
30 23893 5714 1 109.50000 418.400000
30 23893 23894 1 109.50000 418.400000
3779 23893 5714 1 109.50000 418.400000
3779 23893 23894 1 109.50000 418.400000
5714 23893 23894 1 109.50000 418.400000
23893 23894 23895 1 115.00000 209.200000
3419 23896 6899 1 109.50000 418.400000
3419 23896 6900 1 109.50000 418.400000
3419 23896 23897 1 109.50000 418.400000
6899 23896 6900 1 109.50000 418.400000
6899 23896 23897 1 109.50000 418.400000
6900 23896 23897 1 109.50000 418.400000
23896 23897 23898 1 115.00000 209.200000
2015 23899 6916 1 109.50000 418.400000
2015 23899 6917 1 109.50000 418.400000
2015 23899 23900 1 109.50000 418.400000
6916 23899 6917 1 109.50000 418.400000
6916 23899 23900 1 109.50000 418.400000
6917 23899 23900 1 109.50000 418.400000
23899 23900 23901 1 115.00000 209.200000
2952 23902 6931 1 109.50000 418.400000
2952 23902 6932 1 109.50000 418.400000
2952 23902 23903 1 109.50000 418.400000
6931 23902 6932 1 109.50000 418.400000
6931 23902 23903 1 109.50000 418.400000
6932 23902 23903 1 109.50000 418.400000
23902 23903 23904 1 115.00000 209.200000
4433 23905 5666 1 109.50000 418.400000
4433 23905 6961 1 109.50000 418.400000
4433 23905 23906 1 109.50000 418.400000
5666 23905 6961 1 109.50000 418.400000
5666 23905 23906 1 109.50000 418.400000
6961 23905 23906 1 109.50000 418.400000
23905 23906 23907 1 115.00000 209.200000
2240 23908 6978 1 109.50000 418.400000
2240 23908 11169 1 109.50000 418.400000
2240 23908 23909 1 109.50000 418.400000
6978 23908 11169 1 109.50000 418.400000
6978 23908 23909 1 109.50000 418.400000
11169 23908 23909 1 109.50000 418.400000
23908 23909 23910 1 115.00000 209.200000
7112 23911 7113 1 109.50000 418.400000
7112 23911 7114 1 109.50000 418.400000
7112 23911 23912 1 109.50000 418.400000
7113 23911 7114 1 109.50000 418.400000
7113 23911 23912 1 109.50000 418.400000
7114 23911 23912 1 109.50000 418.400000
23911 23912 23913 1 115.00000 209.200000
5039 23914 7141 1 109.50000 418.400000
5039 23914 7142 1 109.50000 418.400000
5039 23914 23915 1 109.50000 418.400000
7141 23914 7142 1 109.50000 418.400000
7141 23914 23915 1 109.50000 418.400000
7142 23914 23915 1 109.50000 418.400000
23914 23915 23916 1 115.00000 209.200000
1171 23917 7222 1 109.50000 418.400000
1171 23917 7223 1 109.50000 418.400000
1171 23917 23918 1 109.50000 418.400000
7222 23917 7223 1 109.50000 418.400000
7222 23917 23918 1 109.50000 418.400000
7223 23917 23918 1 109.50000 418.400000
23917 23918 23919 1 115.00000 209.200000
7262 23920 7263 1 109.50000 418.400000
7262 23920 7264 1 109.50000 418.400000
7262 23920 23921 1 109.50000 418.400000
7263 23920 7264 1 109.50000 418.400000
7263 23920 23921 1 109.50000 418.400000
7264 23920 23921 1 109.50000 418.400000
23920 23921 23922 1 115.00000 209.200000
1110 23923 2651 1 109.50000 418.400000
1110 23923 2690 1 109.50000 418.400000
1110 23923 23924 1 109.50000 418.400000
2651 23923 2690 1 109.50000 418.400000
2651 23923 23924 1 109.50000 418.400000
2690 23923 23924 1 109.50000 418.400000
23923 23924 23925 1 115.00000 209.200000
3148 23926 7375 1 109.50000 418.400000
3148 23926 7376 1 109.50000 418.400000
3148 23926 23927 1 109.50000 418.400000
7375 23926 7376 1 109.50000 418.400000
7375 23926 23927 1 109.50000 418.400000
7376 23926 23927 1 109.50000 418.400000
23926 23927 23928 1 115.00000 209.200000
2432 23929 2433 1 109.50000 418.400000
2432 23929 11181 1 109.50000 418.400000
2432 23929 23930 1 109.50000 418.400000
2433 23929 11181 1 109.50000 418.400000
2433 23929 23930 1 109.50000 418.400000
11181 23929 23930 1 109.50000 418.400000
23929 23930 23931 1 115.00000 209.200000
3771 23932 5460 1 109.50000 418.400000
3771 23932 11225 1 109.50000 418.400000
3771 23932 23933 1 109.50000 418.400000
5460 23932 11225 1 109.50000 418.400000
5460 23932 23933 1 109.50000 418.400000
11225 23932 23933 1 109.50000 418.400000
23932 23933 23934 1 115.00000 209.200000
3106 23935 5095 1 109.50000 418.400000
3106 23935 5501 1 109.50000 418.400000
3106 23935 23936 1 109.50000 418.400000
5095 23935 5501 1 109.50000 418.400000
5095 23935 23936 1 109.50000 418.400000
5501 23935 23936 1 109.50000 418.400000
23935 23936 23937 1 115.00000 209.200000
7624 23938 7625 1 109.50000 418.400000
7624 23938 7626 1 109.50000 418.400000
7624 23938 23939 1 109.50000 418.400000
7625 23938 7626 1 109.50000 418.400000
7625 23938 23939 1 109.50000 418.400000
7626 23938 23939 1 109.50000 418.400000
23938 23939 23940 1 115.00000 209.200000
5261 23941 7664 1 109.50000 418.400000
5261 23941 11142 1 109.50000 418.400000
5261 23941 23942 1 109.50000 418.400000
7664 23941 11142 1 109.50000 418.400000
7664 23941 23942 1 109.50000 418.400000
11142 23941 23942 1 109.50000 418.400000
23941 23942 23943 1 115.00000 209.200000
6574 23944 7665 1 109.50000 418.400000
6574 23944 7666 1 109.50000 418.400000
6574 23944 23945 1 109.50000 418.400000
7665 23944 7666 1 109.50000 418.400000
7665 23944 23945 1 109.50000 418.400000
7666 23944 23945 1 109.50000 418.400000
23944 23945 23946 1 115.00000 209.200000
7763 23947 7783 1 109.50000 418.400000
7763 23947 7785 1 109.50000 418.400000
7763 23947 23948 1 109.50000 418.400000
7783 23947 7785 1 109.50000 418.400000
7783 23947 23948 1 109.50000 418.400000
7785 23947 23948 1 109.50000 418.400000
23947 23948 23949 1 115.00000 209.200000
3425 23950 7859 1 109.50000 418.400000
3425 23950 11191 1 109.50000 418.400000
3425 23950 23951 1 109.50000 418.400000
7859 23950 11191 1 109.50000 418.400000
7859 23950 23951 1 109.50000 418.400000
11191 23950 23951 1 109.50000 418.400000
23950 23951 23952 1 115.00000 209.200000
8091 23953 8092 1 109.50000 418.400000
8091 23953 8093 1 109.50000 418.400000
8091 23953 23954 1 109.50000 418.400000
8092 23953 8093 1 109.50000 418.400000
8092 23953 23954 1 109.50000 418.400000
8093 23953 23954 1 109.50000 418.400000
23953 23954 23955 1 115.00000 209.200000
7364 23956 7762 1 109.50000 418.400000
7364 23956 7763 1 109.50000 418.400000
7364 23956 23957 1 109.50000 418.400000
7762 23956 7763 1 109.50000 418.400000
7762 23956 23957 1 109.50000 418.400000
7763 23956 23957 1 109.50000 418.400000
23956 23957 23958 1 115.00000 209.200000
2177 23959 4737 1 109.50000 418.400000
2177 23959 8153 1 109.50000 418.400000
2177 23959 23960 1 109.50000 418.400000
4737 23959 8153 1 109.50000 418.400000
4737 23959 23960 1 109.50000 418.400000
8153 23959 23960 1 109.50000 418.400000
23959 23960 23961 1 115.00000 209.200000
5717 23962 7910 1 109.50000 418.400000
5717 23962 8221 1 109.50000 418.400000
5717 23962 23963 1 109.50000 418.400000
7910 23962 8221 1 109.50000 418.400000
7910 23962 23963 1 109.50000 418.400000
8221 23962 23963 1 109.50000 418.400000
23962 23963 23964 1 115.00000 209.200000
4516 23965 6448 1 109.50000 418.400000
4516 23965 8246 1 109.50000 418.400000
4516 23965 23966 1 109.50000 418.400000
6448 23965 8246 1 109.50000 418.400000
6448 23965 23966 1 109.50000 418.400000
8246 23965 23966 1 109.50000 418.400000
23965 23966 23967 1 115.00000 209.200000
7805 23968 8404 1 109.50000 418.400000
7805 23968 8405 1 109.50000 418.400000
7805 23968 23969 1 109.50000 418.400000
8404 23968 8405 1 109.50000 418.400000
8404 23968 23969 1 109.50000 418.400000
8405 23968 23969 1 109.50000 418.400000
23968 23969 23970 1 115.00000 209.200000
1137 23971 4896 1 109.50000 418.400000
1137 23971 8492 1 109.50000 418.400000
1137 23971 23972 1 109.50000 418.400000
4896 23971 8492 1 109.50000 418.400000
4896 23971 23972 1 109.50000 418.400000
8492 23971 23972 1 109.50000 418.400000
23971 23972 23973 1 115.00000 209.200000
975 23974 2445 1 109.50000 418.400000
975 23974 8518 1 109.50000 418.400000
975 23974 23975 1 109.50000 418.400000
2445 23974 8518 1 109.50000 418.400000
2445 23974 23975 1 109.50000 418.400000
8518 23974 23975 1 109.50000 418.400000
23974 23975 23976 1 115.00000 209.200000
6224 23977 8657 1 109.50000 418.400000
6224 23977 8658 1 109.50000 418.400000
6224 23977 23978 1 109.50000 418.400000
8657 23977 8658 1 109.50000 418.400000
8657 23977 23978 1 109.50000 418.400000
8658 23977 23978 1 109.50000 418.400000
23977 23978 23979 1 115.00000 209.200000
6932 23980 8760 1 109.50000 418.400000
6932 23980 8761 1 109.50000 418.400000
6932 23980 23981 1 109.50000 418.400000
8760 23980 8761 1 109.50000 418.400000
8760 23980 23981 1 109.50000 418.400000
8761 23980 23981 1 109.50000 418.400000
23980 23981 23982 1 115.00000 209.200000
5182 23983 8821 1 109.50000 418.400000
5182 23983 11237 1 109.50000 418.400000
5182 23983 23984 1 109.50000 418.400000
8821 23983 11237 1 109.50000 418.400000
8821 23983 23984 1 109.50000 418.400000
11237 23983 23984 1 109.50000 418.400000
23983 23984 23985 1 115.00000 209.200000
3494 23986 5256 1 109.50000 418.400000
3494 23986 8913 1 109.50000 418.400000
3494 23986 23987 1 109.50000 418.400000
5256 23986 8913 1 109.50000 418.400000
5256 23986 23987 1 109.50000 418.400000
8913 23986 23987 1 109.50000 418.400000
23986 23987 23988 1 115.00000 209.200000
7510 23989 8407 1 109.50000 418.400000
7510 23989 8927 1 109.50000 418.400000
7510 23989 23990 1 109.50000 418.400000
8407 23989 8927 1 109.50000 418.400000
8407 23989 23990 1 109.50000 418.400000
8927 23989 23990 1 109.50000 418.400000
23989 23990 23991 1 115.00000 209.200000
75 23992 9011 1 109.50000 418.400000
75 23992 9012 1 109.50000 418.400000
75 23992 23993 1 109.50000 418.400000
9011 23992 9012 1 109.50000 418.400000
9011 23992 23993 1 109.50000 418.400000
9012 23992 23993 1 109.50000 418.400000
23992 23993 23994 1 115.00000 209.200000
3880 23995 9143 1 109.50000 418.400000
3880 23995 9144 1 109.50000 418.400000
3880 23995 23996 1 109.50000 418.400000
9143 23995 9144 1 109.50000 418.400000
9143 23995 23996 1 109.50000 418.400000
9144 23995 23996 1 109.50000 418.400000
23995 23996 23997 1 115.00000 209.200000
5216 23998 7142 1 109.50000 418.400000
5216 23998 7842 1 109.50000 418.400000
5216 23998 23999 1 109.50000 418.400000
7142 23998 7842 1 109.50000 418.400000
7142 23998 23999 1 109.50000 418.400000
7842 23998 23999 1 109.50000 418.400000
23998 23999 24000 1 115.00000 209.200000
306 24001 8635 1 109.50000 418.400000
306 24001 11202 1 109.50000 418.400000
306 24001 24002 1 109.50000 418.400000
8635 24001 11202 1 109.50000 418.400000
8635 24001 24002 1 109.50000 418.400000
11202 24001 24002 1 109.50000 418.400000
24001 24002 24003 1 115.00000 209.200000
3101 24004 7657 1 109.50000 418.400000
3101 24004 9284 1 109.50000 418.400000
3101 24004 24005 1 109.50000 418.400000
7657 24004 9284 1 109.50000 418.400000
7657 24004 24005 1 109.50000 418.400000
9284 24004 24005 1 109.50000 418.400000
24004 24005 24006 1 115.00000 209.200000
8368 24007 9054 1 109.50000 418.400000
8368 24007 9348 1 109.50000 418.400000
8368 24007 24008 1 109.50000 418.400000
9054 24007 9348 1 109.50000 418.400000
9054 24007 24008 1 109.50000 418.400000
9348 24007 24008 1 109.50000 418.400000
24007 24008 24009 1 115.00000 209.200000
4102 24010 9375 1 109.50000 418.400000
4102 24010 11224 1 109.50000 418.400000
4102 24010 24011 1 109.50000 418.400000
9375 24010 11224 1 109.50000 418.400000
9375 24010 24011 1 109.50000 418.400000
11224 24010 24011 1 109.50000 418.400000
24010 24011 24012 1 115.00000 209.200000
6737 24013 9405 1 109.50000 418.400000
6737 24013 11165 1 109.50000 418.400000
6737 24013 24014 1 109.50000 418.400000
9405 24013 11165 1 109.50000 418.400000
9405 24013 24014 1 109.50000 418.400000
11165 24013 24014 1 109.50000 418.400000
24013 24014 24015 1 115.00000 209.200000
5504 24016 9430 1 109.50000 418.400000
5504 24016 11177 1 109.50000 418.400000
5504 24016 24017 1 109.50000 418.400000
9430 24016 11177 1 109.50000 418.400000
9430 24016 24017 1 109.50000 418.400000
11177 24016 24017 1 109.50000 418.400000
24016 24017 24018 1 115.00000 209.200000
1240 24019 2991 1 109.50000 418.400000
1240 24019 9458 1 109.50000 418.400000
1240 24019 24020 1 109.50000 418.400000
2991 24019 9458 1 109.50000 418.400000
2991 24019 24020 1 109.50000 418.400000
9458 24019 24020 1 109.50000 418.400000
24019 24020 24021 1 115.00000 209.200000
5257 24022 5448 1 109.50000 418.400000
5257 24022 11230 1 109.50000 418.400000
5257 24022 24023 1 109.50000 418.400000
5448 24022 11230 1 109.50000 418.400000
5448 24022 24023 1 109.50000 418.400000
11230 24022 24023 1 109.50000 418.400000
24022 24023 24024 1 115.00000 209.200000
9547 24025 9548 1 109.50000 418.400000
9547 24025 11147 1 109.50000 418.400000
9547 24025 24026 1 109.50000 418.400000
9548 24025 11147 1 109.50000 418.400000
9548 24025 24026 1 109.50000 418.400000
11147 24025 24026 1 109.50000 418.400000
24025 24026 24027 1 115.00000 209.200000
8658 24028 9601 1 109.50000 418.400000
8658 24028 9602 1 109.50000 418.400000
8658 24028 24029 1 109.50000 418.400000
9601 24028 9602 1 109.50000 418.400000
9601 24028 24029 1 109.50000 418.400000
9602 24028 24029 1 109.50000 418.400000
24028 24029 24030 1 115.00000 209.200000
3885 24031 5130 1 109.50000 418.400000
3885 24031 9653 1 109.50000 418.400000
3885 24031 24032 1 109.50000 418.400000
5130 24031 9653 1 109.50000 418.400000
5130 24031 24032 1 109.50000 418.400000
9653 24031 24032 1 109.50000 418.400000
24031 24032 24033 1 115.00000 209.200000
4553 24034 4556 1 109.50000 418.400000
4553 24034 9672 1 109.50000 418.400000
4553 24034 24035 1 109.50000 418.400000
4556 24034 9672 1 109.50000 418.400000
4556 24034 24035 1 109.50000 418.400000
9672 24034 24035 1 109.50000 418.400000
24034 24035 24036 1 115.00000 209.200000
1237 24037 4076 1 109.50000 418.400000
1237 24037 5414 1 109.50000 418.400000
1237 24037 24038 1 109.50000 418.400000
4076 24037 5414 1 109.50000 418.400000
4076 24037 24038 1 109.50000 418.400000
5414 24037 24038 1 109.50000 418.400000
24037 24038 24039 1 115.00000 209.200000
783 24040 3119 1 109.50000 418.400000
783 24040 6172 1 109.50000 418.400000
783 24040 24041 1 109.50000 418.400000
3119 24040 6172 1 109.50000 418.400000
3119 24040 24041 1 109.50000 418.400000
6172 24040 24041 1 109.50000 418.400000
24040 24041 24042 1 115.00000 209.200000
1076 24043 4689 1 109.50000 418.400000
1076 24043 7836 1 109.50000 418.400000
1076 24043 24044 1 109.50000 418.400000
4689 24043 7836 1 109.50000 418.400000
4689 24043 24044 1 109.50000 418.400000
7836 24043 24044 1 109.50000 418.400000
24043 24044 24045 1 115.00000 209.200000
4738 24046 9755 1 109.50000 418.400000
4738 24046 9774 1 109.50000 418.400000
4738 24046 24047 1 109.50000 418.400000
9755 24046 9774 1 109.50000 418.400000
9755 24046 24047 1 109.50000 418.400000
9774 24046 24047 1 109.50000 418.400000
24046 24047 24048 1 115.00000 209.200000
2469 24049 6734 1 109.50000 418.400000
2469 24049 9557 1 109.50000 418.400000
2469 24049 24050 1 109.50000 418.400000
6734 24049 9557 1 109.50000 418.400000
6734 24049 24050 1 109.50000 418.400000
9557 24049 24050 1 109.50000 418.400000
24049 24050 24051 1 115.00000 209.200000
7742 24052 9665 1 109.50000 418.400000
7742 24052 9806 1 109.50000 418.400000
7742 24052 24053 1 109.50000 418.400000
9665 24052 9806 1 109.50000 418.400000
9665 24052 24053 1 109.50000 418.400000
9806 24052 24053 1 109.50000 418.400000
24052 24053 24054 1 115.00000 209.200000
7788 24055 9822 1 109.50000 418.400000
7788 24055 9823 1 109.50000 418.400000
7788 24055 24056 1 109.50000 418.400000
9822 24055 9823 1 109.50000 418.400000
9822 24055 24056 1 109.50000 418.400000
9823 24055 24056 1 109.50000 418.400000
24055 24056 24057 1 115.00000 209.200000
395 24058 9825 1 109.50000 418.400000
395 24058 11143 1 109.50000 418.400000
395 24058 24059 1 109.50000 418.400000
9825 24058 11143 1 109.50000 418.400000
9825 24058 24059 1 109.50000 418.400000
11143 24058 24059 1 109.50000 418.400000
24058 24059 24060 1 115.00000 209.200000
4776 24061 9852 1 109.50000 418.400000
4776 24061 9853 1 109.50000 418.400000
4776 24061 24062 1 109.50000 418.400000
9852 24061 9853 1 109.50000 418.400000
9852 24061 24062 1 109.50000 418.400000
9853 24061 24062 1 109.50000 418.400000
24061 24062 24063 1 115.00000 209.200000
8372 24064 9750 1 109.50000 418.400000
8372 24064 9910 1 109.50000 418.400000
8372 24064 24065 1 109.50000 418.400000
9750 24064 9910 1 109.50000 418.400000
9750 24064 24065 1 109.50000 418.400000
9910 24064 24065 1 109.50000 418.400000
24064 24065 24066 1 115.00000 209.200000
2253 24067 9949 1 109.50000 418.400000
2253 24067 9950 1 109.50000 418.400000
2253 24067 24068 1 109.50000 418.400000
9949 24067 9950 1 109.50000 418.400000
9949 24067 24068 1 109.50000 418.400000
9950 24067 24068 1 109.50000 418.400000
24067 24068 24069 1 115.00000 209.200000
7834 24070 9965 1 109.50000 418.400000
7834 24070 9966 1 109.50000 418.400000
7834 24070 24071 1 109.50000 418.400000
9965 24070 9966 1 109.50000 418.400000
9965 24070 24071 1 109.50000 418.400000
9966 24070 24071 1 109.50000 418.400000
24070 24071 24072 1 115.00000 209.200000
5437 24073 8438 1 109.50000 418.400000
5437 24073 11203 1 109.50000 418.400000
5437 24073 24074 1 109.50000 418.400000
8438 24073 11203 1 109.50000 418.400000
8438 24073 24074 1 109.50000 418.400000
11203 24073 24074 1 109.50000 418.400000
24073 24074 24075 1 115.00000 209.200000
1330 24076 7807 1 109.50000 418.400000
1330 24076 10012 1 109.50000 418.400000
1330 24076 24077 1 109.50000 418.400000
7807 24076 10012 1 109.50000 418.400000
7807 24076 24077 1 109.50000 418.400000
10012 24076 24077 1 109.50000 418.400000
24076 24077 24078 1 115.00000 209.200000
2019 24079 6569 1 109.50000 418.400000
2019 24079 10021 1 109.50000 418.400000
2019 24079 24080 1 109.50000 418.400000
6569 24079 10021 1 109.50000 418.400000
6569 24079 24080 1 109.50000 418.400000
10021 24079 24080 1 109.50000 418.400000
24079 24080 24081 1 115.00000 209.200000
2112 24082 10068 1 109.50000 418.400000
2112 24082 10069 1 109.50000 418.400000
2112 24082 24083 1 109.50000 418.400000
10068 24082 10069 1 109.50000 418.400000
10068 24082 24083 1 109.50000 418.400000
10069 24082 24083 1 109.50000 418.400000
24082 24083 24084 1 115.00000 209.200000
9284 24085 10085 1 109.50000 418.400000
9284 24085 10086 1 109.50000 418.400000
9284 24085 24086 1 109.50000 418.400000
10085 24085 10086 1 109.50000 418.400000
10085 24085 24086 1 109.50000 418.400000
10086 24085 24086 1 109.50000 418.400000
24085 24086 24087 1 115.00000 209.200000
3635 24088 7073 1 109.50000 418.400000
3635 24088 11145 1 109.50000 418.400000
3635 24088 24089 1 109.50000 418.400000
7073 24088 11145 1 109.50000 418.400000
7073 24088 24089 1 109.50000 418.400000
11145 24088 24089 1 109.50000 418.400000
24088 24089 24090 1 115.00000 209.200000
3345 24091 4952 1 109.50000 418.400000
3345 24091 10104 1 109.50000 418.400000
3345 24091 24092 1 109.50000 418.400000
4952 24091 10104 1 109.50000 418.400000
4952 24091 24092 1 109.50000 418.400000
10104 24091 24092 1 109.50000 418.400000
24091 24092 24093 1 115.00000 209.200000
2890 24094 9603 1 109.50000 418.400000
2890 24094 10140 1 109.50000 418.400000
2890 24094 24095 1 109.50000 418.400000
9603 24094 10140 1 109.50000 418.400000
9603 24094 24095 1 109.50000 418.400000
10140 24094 24095 1 109.50000 418.400000
24094 24095 24096 1 115.00000 209.200000
2099 24097 10012 1 109.50000 418.400000
2099 24097 10165 1 109.50000 418.400000
2099 24097 24098 1 109.50000 418.400000
10012 24097 10165 1 109.50000 418.400000
10012 24097 24098 1 109.50000 418.400000
10165 24097 24098 1 109.50000 418.400000
24097 24098 24099 1 115.00000 209.200000
2747 24100 9143 1 109.50000 418.400000
2747 24100 10185 1 109.50000 418.400000
2747 24100 24101 1 109.50000 418.400000
9143 24100 10185 1 109.50000 418.400000
9143 24100 24101 1 109.50000 418.400000
10185 24100 24101 1 109.50000 418.400000
24100 24101 24102 1 115.00000 209.200000
175 24103 5843 1 109.50000 418.400000
175 24103 9271 1 109.50000 418.400000
175 24103 24104 1 109.50000 418.400000
5843 24103 9271 1 109.50000 418.400000
5843 24103 24104 1 109.50000 418.400000
9271 24103 24104 1 109.50000 418.400000
24103 24104 24105 1 115.00000 209.200000
7661 24106 7663 1 109.50000 418.400000
7661 24106 10213 1 109.50000 418.400000
7661 24106 24107 1 109.50000 418.400000
7663 24106 10213 1 109.50000 418.400000
7663 24106 24107 1 109.50000 418.400000
10213 24106 24107 1 109.50000 418.400000
24106 24107 24108 1 115.00000 209.200000
2667 24109 7851 1 109.50000 418.400000
2667 24109 10230 1 109.50000 418.400000
2667 24109 24110 1 109.50000 418.400000
7851 24109 10230 1 109.50000 418.400000
7851 24109 24110 1 109.50000 418.400000
10230 24109 24110 1 109.50000 418.400000
24109 24110 24111 1 115.00000 209.200000
3527 24112 5392 1 109.50000 418.400000
3527 24112 6928 1 109.50000 418.400000
3527 24112 24113 1 109.50000 418.400000
5392 24112 6928 1 109.50000 418.400000
5392 24112 24113 1 109.50000 418.400000
6928 24112 24113 1 109.50000 418.400000
24112 24113 24114 1 115.00000 209.200000
4363 24115 9648 1 109.50000 418.400000
4363 24115 11142 1 109.50000 418.400000
4363 24115 24116 1 109.50000 418.400000
9648 24115 11142 1 109.50000 418.400000
9648 24115 24116 1 109.50000 418.400000
11142 24115 24116 1 109.50000 418.400000
24115 24116 24117 1 115.00000 209.200000
3927 24118 4809 1 109.50000 418.400000
3927 24118 5287 1 109.50000 418.400000
3927 24118 24119 1 109.50000 418.400000
4809 24118 5287 1 109.50000 418.400000
4809 24118 24119 1 109.50000 418.400000
5287 24118 24119 1 109.50000 418.400000
24118 24119 24120 1 115.00000 209.200000
178 24121 6130 1 109.50000 418.400000
178 24121 11190 1 109.50000 418.400000
178 24121 24122 1 109.50000 418.400000
6130 24121 11190 1 109.50000 418.400000
6130 24121 24122 1 109.50000 418.400000
11190 24121 24122 1 109.50000 418.400000
24121 24122 24123 1 115.00000 209.200000
5333 24124 8617 1 109.50000 418.400000
5333 24124 11159 1 109.50000 418.400000
5333 24124 24125 1 109.50000 418.400000
8617 24124 11159 1 109.50000 418.400000
8617 24124 24125 1 109.50000 418.400000
11159 24124 24125 1 109.50000 418.400000
24124 24125 24126 1 115.00000 209.200000
4185 24127 10413 1 109.50000 418.400000
4185 24127 10414 1 109.50000 418.400000
4185 24127 24128 1 109.50000 418.400000
10413 24127 10414 1 109.50000 418.400000
10413 24127 24128 1 109.50000 418.400000
10414 24127 24128 1 109.50000 418.400000
24127 24128 24129 1 115.00000 209.200000
6435 24130 6437 1 109.50000 418.400000
6435 24130 8391 1 109.50000 418.400000
6435 24130 24131 1 109.50000 418.400000
6437 24130 8391 1 109.50000 418.400000
6437 24130 24131 1 109.50000 418.400000
8391 24130 24131 1 109.50000 418.400000
24130 24131 24132 1 115.00000 209.200000
676 24133 1921 1 109.50000 418.400000
676 24133 10475 1 109.50000 418.400000
676 24133 24134 1 109.50000 418.400000
1921 24133 10475 1 109.50000 418.400000
1921 24133 24134 1 109.50000 418.400000
10475 24133 24134 1 109.50000 418.400000
24133 24134 24135 1 115.00000 209.200000
8363 24136 9558 1 109.50000 418.400000
8363 24136 11164 1 109.50000 418.400000
8363 24136 24137 1 109.50000 418.400000
9558 24136 11164 1 109.50000 418.400000
9558 24136 24137 1 109.50000 418.400000
11164 24136 24137 1 109.50000 418.400000
24136 24137 24138 1 115.00000 209.200000
1021 24139 9602 1 109.50000 418.400000
1021 24139 9828 1 109.50000 418.400000
1021 24139 24140 1 109.50000 418.400000
9602 24139 9828 1 109.50000 418.400000
9602 24139 24140 1 109.50000 418.400000
9828 24139 24140 1 109.50000 418.400000
24139 24140 24141 1 115.00000 209.200000
1711 24142 1712 1 109.50000 418.400000
1711 24142 10508 1 109.50000 418.400000
1711 24142 24143 1 109.50000 418.400000
1712 24142 10508 1 109.50000 418.400000
1712 24142 24143 1 109.50000 418.400000
10508 24142 24143 1 109.50000 418.400000
24142 24143 24144 1 115.00000 209.200000
1970 24145 3493 1 109.50000 418.400000
1970 24145 6263 1 109.50000 418.400000
1970 24145 24146 1 109.50000 418.400000
3493 24145 6263 1 109.50000 418.400000
3493 24145 24146 1 109.50000 418.400000
6263 24145 24146 1 109.50000 418.400000
24145 24146 24147 1 115.00000 209.200000
5467 24148 10581 1 109.50000 418.400000
5467 24148 10582 1 109.50000 418.400000
5467 24148 24149 1 109.50000 418.400000
10581 24148 10582 1 109.50000 418.400000
10581 24148 24149 1 109.50000 418.400000
10582 24148 24149 1 109.50000 418.400000
24148 24149 24150 1 115.00000 209.200000
5991 24151 10515 1 109.50000 418.400000
5991 24151 10591 1 109.50000 418.400000
5991 24151 24152 1 109.50000 418.400000
10515 24151 10591 1 109.50000 418.400000
10515 24151 24152 1 109.50000 418.400000
10591 24151 24152 1 109.50000 418.400000
24151 24152 24153 1 115.00000 209.200000
620 24154 10592 1 109.50000 418.400000
620 24154 10593 1 109.50000 418.400000
620 24154 24155 1 109.50000 418.400000
10592 24154 10593 1 109.50000 418.400000
10592 24154 24155 1 109.50000 418.400000
10593 24154 24155 1 109.50000 418.400000
24154 24155 24156 1 115.00000 209.200000
3946 24157 4479 1 109.50000 418.400000
3946 24157 10607 1 109.50000 418.400000
3946 24157 24158 1 109.50000 418.400000
4479 24157 10607 1 109.50000 418.400000
4479 24157 24158 1 109.50000 418.400000
10607 24157 24158 1 109.50000 418.400000
24157 24158 24159 1 115.00000 209.200000
90 24160 3380 1 109.50000 418.400000
90 24160 5856 1 109.50000 418.400000
90 24160 24161 1 109.50000 418.400000
3380 24160 5856 1 109.50000 418.400000
3380 24160 24161 1 109.50000 418.400000
5856 24160 24161 1 109.50000 418.400000
24160 24161 24162 1 115.00000 209.200000
416 24163 7933 1 109.50000 418.400000
416 24163 11200 1 109.50000 418.400000
416 24163 24164 1 109.50000 418.400000
7933 24163 11200 1 109.50000 418.400000
7933 24163 24164 1 109.50000 418.400000
11200 24163 24164 1 109.50000 418.400000
24163 24164 24165 1 115.00000 209.200000
3878 24166 8874 1 109.50000 418.400000
3878 24166 9441 1 109.50000 418.400000
3878 24166 24167 1 109.50000 418.400000
8874 24166 9441 1 109.50000 418.400000
8874 24166 24167 1 109.50000 418.400000
9441 24166 24167 1 109.50000 418.400000
24166 24167 24168 1 115.00000 209.200000
6843 24169 8621 1 109.50000 418.400000
6843 24169 9766 1 109.50000 418.400000
6843 24169 24170 1 109.50000 418.400000
8621 24169 9766 1 109.50000 418.400000
8621 24169 24170 1 109.50000 418.400000
9766 24169 24170 1 109.50000 418.400000
24169 24170 24171 1 115.00000 209.200000
6152 24172 8498 1 109.50000 418.400000
6152 24172 10747 1 109.50000 418.400000
6152 24172 24173 1 109.50000 418.400000
8498 24172 10747 1 109.50000 418.400000
8498 24172 24173 1 109.50000 418.400000
10747 24172 24173 1 109.50000 418.400000
24172 24173 24174 1 115.00000 209.200000
792 24175 5442 1 109.50000 418.400000
792 24175 9504 1 109.50000 418.400000
792 24175 24176 1 109.50000 418.400000
5442 24175 9504 1 109.50000 418.400000
5442 24175 24176 1 109.50000 418.400000
9504 24175 24176 1 109.50000 418.400000
24175 24176 24177 1 115.00000 209.200000
239 24178 3133 1 109.50000 418.400000
239 24178 8794 1 109.50000 418.400000
239 24178 24179 1 109.50000 418.400000
3133 24178 8794 1 109.50000 418.400000
3133 24178 24179 1 109.50000 418.400000
8794 24178 24179 1 109.50000 418.400000
24178 24179 24180 1 115.00000 209.200000
937 24181 6733 1 109.50000 418.400000
937 24181 9652 1 109.50000 418.400000
937 24181 24182 1 109.50000 418.400000
6733 24181 9652 1 109.50000 418.400000
6733 24181 24182 1 109.50000 418.400000
9652 24181 24182 1 109.50000 418.400000
24181 24182 24183 1 115.00000 209.200000
2569 24184 9993 1 109.50000 418.400000
2569 24184 10450 1 109.50000 418.400000
2569 24184 24185 1 109.50000 418.400000
9993 24184 10450 1 109.50000 418.400000
9993 24184 24185 1 109.50000 418.400000
10450 24184 24185 1 109.50000 418.400000
24184 24185 24186 1 115.00000 209.200000
357 24187 6595 1 109.50000 418.400000
357 24187 10790 1 109.50000 418.400000
357 24187 24188 1 109.50000 418.400000
6595 24187 10790 1 109.50000 418.400000
6595 24187 24188 1 109.50000 418.400000
10790 24187 24188 1 109.50000 418.400000
24187 24188 24189 1 115.00000 209.200000
1259 24190 10795 1 109.50000 418.400000
1259 24190 11245 1 109.50000 418.400000
1259 24190 24191 1 109.50000 418.400000
10795 24190 11245 1 109.50000 418.400000
10795 24190 24191 1 109.50000 418.400000
11245 24190 24191 1 109.50000 418.400000
24190 24191 24192 1 115.00000 209.200000
417 24193 9344 1 109.50000 418.400000
417 24193 10804 1 109.50000 418.400000
417 24193 24194 1 109.50000 418.400000
9344 24193 10804 1 109.50000 418.400000
9344 24193 24194 1 109.50000 418.400000
10804 24193 24194 1 109.50000 418.400000
24193 24194 24195 1 115.00000 209.200000
1951 24196 8851 1 109.50000 418.400000
1951 24196 10674 1 109.50000 418.400000
1951 24196 24197 1 109.50000 418.400000
8851 24196 10674 1 109.50000 418.400000
8851 24196 24197 1 109.50000 418.400000
10674 24196 24197 1 109.50000 418.400000
24196 24197 24198 1 115.00000 209.200000
8234 24199 9048 1 109.50000 418.400000
8234 24199 11160 1 109.50000 418.400000
8234 24199 24200 1 109.50000 418.400000
9048 24199 11160 1 109.50000 418.400000
9048 24199 24200 1 109.50000 418.400000
11160 24199 24200 1 109.50000 418.400000
24199 24200 24201 1 115.00000 209.200000
2042 24202 7343 1 109.50000 418.400000
2042 24202 10425 1 109.50000 418.400000
2042 24202 24203 1 109.50000 418.400000
7343 24202 10425 1 109.50000 418.400000
7343 24202 24203 1 109.50000 418.400000
10425 24202 24203 1 109.50000 418.400000
24202 24203 24204 1 115.00000 209.200000
1222 24205 10802 1 109.50000 418.400000
1222 24205 10828 1 109.50000 418.400000
1222 24205 24206 1 109.50000 418.400000
10802 24205 10828 1 109.50000 418.400000
10802 24205 24206 1 109.50000 418.400000
10828 24205 24206 1 109.50000 418.400000
24205 24206 24207 1 115.00000 209.200000
2490 24208 7612 1 109.50000 418.400000
2490 24208 7613 1 109.50000 418.400000
2490 24208 24209 1 109.50000 418.400000
7612 24208 7613 1 109.50000 418.400000
7612 24208 24209 1 109.50000 418.400000
7613 24208 24209 1 109.50000 418.400000
24208 24209 24210 1 115.00000 209.200000
4497 24211 5673 1 109.50000 418.400000
4497 24211 10858 1 109.50000 418.400000
4497 24211 24212 1 109.50000 418.400000
5673 24211 10858 1 109.50000 418.400000
5673 24211 24212 1 109.50000 418.400000
10858 24211 24212 1 109.50000 418.400000
24211 24212 24213 1 115.00000 209.200000
7843 24214 10080 1 109.50000 418.400000
7843 24214 10213 1 109.50000 418.400000
7843 24214 24215 1 109.50000 418.400000
10080 24214 10213 1 109.50000 418.400000
10080 24214 24215 1 109.50000 418.400000
10213 24214 24215 1 109.50000 418.400000
24214 24215 24216 1 115.00000 209.200000
6913 24217 7711 1 109.50000 418.400000
6913 24217 7861 1 109.50000 418.400000
6913 24217 24218 1 109.50000 418.400000
7711 24217 7861 1 109.50000 418.400000
7711 24217 24218 1 109.50000 418.400000
7861 24217 24218 1 109.50000 418.400000
24217 24218 24219 1 115.00000 209.200000
4209 24220 5092 1 109.50000 418.400000
4209 24220 9927 1 109.50000 418.400000
4209 24220 24221 1 109.50000 418.400000
5092 24220 9927 1 109.50000 418.400000
5092 24220 24221 1 109.50000 418.400000
9927 24220 24221 1 109.50000 418.400000
24220 24221 24222 1 115.00000 209.200000
5473 24223 9104 1 109.50000 418.400000
5473 24223 9471 1 109.50000 418.400000
5473 24223 24224 1 109.50000 418.400000
9104 24223 9471 1 109.50000 418.400000
9104 24223 24224 1 109.50000 418.400000
9471 24223 24224 1 109.50000 418.400000
24223 24224 24225 1 115.00000 209.200000
3041 24226 6187 1 109.50000 418.400000
3041 24226 11151 1 109.50000 418.400000
3041 24226 24227 1 109.50000 418.400000
6187 24226 11151 1 109.50000 418.400000
6187 24226 24227 1 109.50000 418.400000
11151 24226 24227 1 109.50000 418.400000
24226 24227 24228 1 115.00000 209.200000
6939 24229 9172 1 109.50000 418.400000
6939 24229 11172 1 109.50000 418.400000
6939 24229 24230 1 109.50000 418.400000
9172 24229 11172 1 109.50000 418.400000
9172 24229 24230 1 109.50000 418.400000
11172 24229 24230 1 109.50000 418.400000
24229 24230 24231 1 115.00000 209.200000
6441 24232 8569 1 109.50000 418.400000
6441 24232 10759 1 109.50000 418.400000
6441 24232 24233 1 109.50000 418.400000
8569 24232 10759 1 109.50000 418.400000
8569 24232 24233 1 109.50000 418.400000
10759 24232 24233 1 109.50000 418.400000
24232 24233 24234 1 115.00000 209.200000
8298 24235 10570 1 109.50000 418.400000
8298 24235 10926 1 109.50000 418.400000
8298 24235 24236 1 109.50000 418.400000
10570 24235 10926 1 109.50000 418.400000
10570 24235 24236 1 109.50000 418.400000
10926 24235 24236 1 109.50000 418.400000
24235 24236 24237 1 115.00000 209.200000
1727 24238 6638 1 109.50000 418.400000
1727 24238 7818 1 109.50000 418.400000
1727 24238 24239 1 109.50000 418.400000
6638 24238 7818 1 109.50000 418.400000
6638 24238 24239 1 109.50000 418.400000
7818 24238 24239 1 109.50000 418.400000
24238 24239 24240 1 115.00000 209.200000
518 24241 9247 1 109.50000 418.400000
518 24241 9744 1 109.50000 418.400000
518 24241 24242 1 109.50000 418.400000
9247 24241 9744 1 109.50000 418.400000
9247 24241 24242 1 109.50000 418.400000
9744 24241 24242 1 109.50000 418.400000
24241 24242 24243 1 115.00000 209.200000
6144 24244 6987 1 109.50000 418.400000
6144 24244 8304 1 109.50000 418.400000
6144 24244 24245 1 109.50000 418.400000
6987 24244 8304 1 109.50000 418.400000
6987 24244 24245 1 109.50000 418.400000
8304 24244 24245 1 109.50000 418.400000
24244 24245 24246 1 115.00000 209.200000
8429 24247 11007 1 109.50000 418.400000
8429 24247 11008 1 109.50000 418.400000
8429 24247 24248 1 109.50000 418.400000
11007 24247 11008 1 109.50000 418.400000
11007 24247 24248 1 109.50000 418.400000
11008 24247 24248 1 109.50000 418.400000
24247 24248 24249 1 115.00000 209.200000
6617 24250 8588 1 109.50000 418.400000
6617 24250 9756 1 109.50000 418.400000
6617 24250 24251 1 109.50000 418.400000
8588 24250 9756 1 109.50000 418.400000
8588 24250 24251 1 109.50000 418.400000
9756 24250 24251 1 109.50000 418.400000
24250 24251 24252 1 115.00000 209.200000
6302 24253 11009 1 109.50000 418.400000
6302 24253 11052 1 109.50000 418.400000
6302 24253 24254 1 109.50000 418.400000
11009 24253 11052 1 109.50000 418.400000
11009 24253 24254 1 109.50000 418.400000
11052 24253 24254 1 109.50000 418.400000
24253 24254 24255 1 115.00000 209.200000
1260 24256 4517 1 109.50000 418.400000
1260 24256 9202 1 109.50000 418.400000
1260 24256 24257 1 109.50000 418.400000
4517 24256 9202 1 109.50000 418.400000
4517 24256 24257 1 109.50000 418.400000
9202 24256 24257 1 109.50000 418.400000
24256 24257 24258 1 115.00000 209.200000
2963 24259 5043 1 109.50000 418.400000
2963 24259 8444 1 109.50000 418.400000
2963 24259 24260 1 109.50000 418.400000
5043 24259 8444 1 109.50000 418.400000
5043 24259 24260 1 109.50000 418.400000
8444 24259 24260 1 109.50000 418.400000
24259 24260 24261 1 115.00000 209.200000
1407 24262 10329 1 109.50000 418.400000
1407 24262 10385 1 109.50000 418.400000
1407 24262 24263 1 109.50000 418.400000
10329 24262 10385 1 109.50000 418.400000
10329 24262 24263 1 109.50000 418.400000
10385 24262 24263 1 109.50000 418.400000
24262 24263 24264 1 115.00000 209.200000
1224 24265 4238 1 109.50000 418.400000
1224 24265 8760 1 109.50000 418.400000
1224 24265 24266 1 109.50000 418.400000
4238 24265 8760 1 109.50000 418.400000
4238 24265 24266 1 109.50000 418.400000
8760 24265 24266 1 109.50000 418.400000
24265 24266 24267 1 115.00000 209.200000
2452 24268 8619 1 109.50000 418.400000
2452 24268 8954 1 109.50000 418.400000
2452 24268 24269 1 109.50000 418.400000
8619 24268 8954 1 109.50000 418.400000
8619 24268 24269 1 109.50000 418.400000
8954 24268 24269 1 109.50000 418.400000
24268 24269 24270 1 115.00000 209.200000
9835 24271 10766 1 109.50000 418.400000
9835 24271 11081 1 109.50000 418.400000
9835 24271 24272 1 109.50000 418.400000
10766 24271 11081 1 109.50000 418.400000
10766 24271 24272 1 109.50000 418.400000
11081 24271 24272 1 109.50000 418.400000
24271 24272 24273 1 115.00000 209.200000
9402 24274 11097 1 109.50000 418.400000
9402 24274 11156 1 109.50000 418.400000
9402 24274 24275 1 109.50000 418.400000
11097 24274 11156 1 109.50000 418.400000
11097 24274 24275 1 109.50000 418.400000
11156 24274 24275 1 109.50000 418.400000
24274 24275 24276 1 115.00000 209.200000
7551 24277 8520 1 109.50000 418.400000
7551 24277 11141 1 109.50000 418.400000
7551 24277 24278 1 109.50000 418.400000
8520 24277 11141 1 109.50000 418.400000
8520 24277 24278 1 109.50000 418.400000
11141 24277 24278 1 109.50000 418.400000
24277 24278 24279 1 115.00000 209.200000
978 24280 2313 1 109.50000 418.400000
978 24280 4530 1 109.50000 418.400000
978 24280 24281 1 109.50000 418.400000
2313 24280 4530 1 109.50000 418.400000
2313 24280 24281 1 109.50000 418.400000
4530 24280 24281 1 109.50000 418.400000
24280 24281 24282 1 115.00000 209.200000
785 24283 3463 1 109.50000 418.400000
785 24283 6500 1 109.50000 418.400000
785 24283 24284 1 109.50000 418.400000
3463 24283 6500 1 109.50000 418.400000
3463 24283 24284 1 109.50000 418.400000
6500 24283 24284 1 109.50000 418.400000
24283 24284 24285 1 115.00000 209.200000
7908 24286 10711 1 109.50000 418.400000
7908 24286 11044 1 109.50000 418.400000
7908 24286 24287 1 109.50000 418.400000
10711 24286 11044 1 109.50000 418.400000
10711 24286 24287 1 109.50000 418.400000
11044 24286 24287 1 109.50000 418.400000
24286 24287 24288 1 115.00000 209.200000
3569 24289 8097 1 109.50000 418.400000
3569 24289 11168 1 109.50000 418.400000
3569 24289 24290 1 109.50000 418.400000
8097 24289 11168 1 109.50000 418.400000
8097 24289 24290 1 109.50000 418.400000
11168 24289 24290 1 109.50000 418.400000
24289 24290 24291 1 115.00000 209.200000
122 24292 867 1 109.50000 418.400000
122 24292 10945 1 109.50000 418.400000
122 24292 24293 1 109.50000 418.400000
867 24292 10945 1 109.50000 418.400000
867 24292 24293 1 109.50000 418.400000
10945 24292 24293 1 109.50000 418.400000
24292 24293 24294 1 115.00000 209.200000
3633 24295 3635 1 109.50000 418.400000
3633 24295 11234 1 109.50000 418.400000
3633 24295 24296 1 109.50000 418.400000
3635 24295 11234 1 109.50000 418.400000
3635 24295 24296 1 109.50000 418.400000
11234 24295 24296 1 109.50000 418.400000
24295 24296 24297 1 115.00000 209.200000
5415 24298 9807 1 109.50000 418.400000
5415 24298 10083 1 109.50000 418.400000
5415 24298 24299 1 109.50000 418.400000
9807 24298 10083 1 109.50000 418.400000
9807 24298 24299 1 109.50000 418.400000
10083 24298 24299 1 109.50000 418.400000
24298 24299 24300 1 115.00000 209.200000
3736 24301 7627 1 109.50000 418.400000
3736 24301 9844 1 109.50000 418.400000
3736 24301 24302 1 109.50000 418.400000
7627 24301 9844 1 109.50000 418.400000
7627 24301 24302 1 109.50000 418.400000
9844 24301 24302 1 109.50000 418.400000
24301 24302 24303 1 115.00000 209.200000
2652 24304 7037 1 109.50000 418.400000
2652 24304 10555 1 109.50000 418.400000
2652 24304 24305 1 109.50000 418.400000
7037 24304 10555 1 109.50000 418.400000
7037 24304 24305 1 109.50000 418.400000
10555 24304 24305 1 109.50000 418.400000
24304 24305 24306 1 115.00000 209.200000
254 24307 255 1 109.50000 418.400000
254 24307 24308 1 109.50000 418.400000
254 24307 24310 1 109.50000 418.400000
255 24307 24308 1 109.50000 418.400000
255 24307 24310 1 109.50000 418.400000
24308 24307 24310 1 109.50000 418.400000
24307 24308 24309 1 115.00000 209.200000
24307 24310 24311 1 115.00000 209.200000
1652 24312 1655 1 109.50000 418.400000
1652 24312 24313 1 109.50000 418.400000
1652 24312 24315 1 109.50000 418.400000
1655 24312 24313 1 109.50000 418.400000
1655 24312 24315 1 109.50000 418.400000
24313 24312 24315 1 109.50000 418.400000
24312 24313 24314 1 115.00000 209.200000
24312 24315 24316 1 115.00000 209.200000
2200 24317 2201 1 109.50000 418.400000
2200 24317 24318 1 109.50000 418.400000
2200 24317 24320 1 109.50000 418.400000
2201 24317 24318 1 109.50000 418.400000
2201 24317 24320 1 109.50000 418.400000
24318 24317 24320 1 109.50000 418.400000
24317 24318 24319 1 115.00000 209.200000
24317 24320 24321 1 115.00000 209.200000
2456 24322 2457 1 109.50000 418.400000
2456 24322 24323 1 109.50000 418.400000
2456 24322 24325 1 109.50000 418.400000
2457 24322 24323 1 109.50000 418.400000
2457 24322 24325 1 109.50000 418.400000
24323 24322 24325 1 109.50000 418.400000
24322 24323 24324 1 115.00000 209.200000
24322 24325 24326 1 115.00000 209.200000
2462 24327 2463 1 109.50000 418.400000
2462 24327 24328 1 109.50000 418.400000
2462 24327 24330 1 109.50000 418.400000
2463 24327 24328 1 109.50000 418.400000
2463 24327 24330 1 109.50000 418.400000
24328 24327 24330 1 109.50000 418.400000
24327 24328 24329 1 115.00000 209.200000
24327 24330 24331 1 115.00000 209.200000
2775 24332 2776 1 109.50000 418.400000
2775 24332 24333 1 109.50000 418.400000
2775 24332 24335 1 109.50000 418.400000
2776 24332 24333 1 109.50000 418.400000
2776 24332 24335 1 109.50000 418.400000
24333 24332 24335 1 109.50000 418.400000
24332 24333 24334 1 115.00000 209.200000
24332 24335 24336 1 115.00000 209.200000
2027 24337 3042 1 109.50000 418.400000
2027 24337 24338 1 109.50000 418.400000
2027 24337 24340 1 109.50000 418.400000
3042 24337 24338 1 109.50000 418.400000
3042 24337 24340 1 109.50000 418.400000
24338 24337 24340 1 109.50000 418.400000
24337 24338 24339 1 115.00000 209.200000
24337 24340 24341 1 115.00000 209.200000
3569 24342 3570 1 109.50000 418.400000
3569 24342 24343 1 109.50000 418.400000
3569 24342 24345 1 109.50000 418.400000
3570 24342 24343 1 109.50000 418.400000
3570 24342 24345 1 109.50000 418.400000
24343 24342 24345 1 109.50000 418.400000
24342 24343 24344 1 115.00000 209.200000
24342 24345 24346 1 115.00000 209.200000
4509 24347 4510 1 109.50000 418.400000
4509 24347 24348 1 109.50000 418.400000
4509 24347 24350 1 109.50000 418.400000
4510 24347 24348 1 109.50000 418.400000
4510 24347 24350 1 109.50000 418.400000
24348 24347 24350 1 109.50000 418.400000
24347 24348 24349 1 115.00000 209.200000
24347 24350 24351 1 115.00000 209.200000
147 24352 4539 1 109.50000 418.400000
147 24352 24353 1 109.50000 418.400000
147 24352 24355 1 109.50000 418.400000
4539 24352 24353 1 109.50000 418.400000
4539 24352 24355 1 109.50000 418.400000
24353 24352 24355 1 109.50000 418.400000
24352 24353 24354 1 115.00000 209.200000
24352 24355 24356 1 115.00000 209.200000
837 24357 4795 1 109.50000 418.400000
837 24357 24358 1 109.50000 418.400000
837 24357 24360 1 109.50000 418.400000
4795 24357 24358 1 109.50000 418.400000
4795 24357 24360 1 109.50000 418.400000
24358 24357 24360 1 109.50000 418.400000
24357 24358 24359 1 115.00000 209.200000
24357 24360 24361 1 115.00000 209.200000
2517 24362 4894 1 109.50000 418.400000
2517 24362 24363 1 109.50000 418.400000
2517 24362 24365 1 109.50000 418.400000
4894 24362 24363 1 109.50000 418.400000
4894 24362 24365 1 109.50000 418.400000
24363 24362 24365 1 109.50000 418.400000
24362 24363 24364 1 115.00000 209.200000
24362 24365 24366 1 115.00000 209.200000
4981 24367 4982 1 109.50000 418.400000
4981 24367 24368 1 109.50000 418.400000
4981 24367 24370 1 109.50000 418.400000
4982 24367 24368 1 109.50000 418.400000
4982 24367 24370 1 109.50000 418.400000
24368 24367 24370 1 109.50000 418.400000
24367 24368 24369 1 115.00000 209.200000
24367 24370 24371 1 115.00000 209.200000
1526 24372 5356 1 109.50000 418.400000
1526 24372 24373 1 109.50000 418.400000
1526 24372 24375 1 109.50000 418.400000
5356 24372 24373 1 109.50000 418.400000
5356 24372 24375 1 109.50000 418.400000
24373 24372 24375 1 109.50000 418.400000
24372 24373 24374 1 115.00000 209.200000
24372 24375 24376 1 115.00000 209.200000
5472 24377 6051 1 109.50000 418.400000
5472 24377 24378 1 109.50000 418.400000
5472 24377 24380 1 109.50000 418.400000
6051 24377 24378 1 109.50000 418.400000
6051 24377 24380 1 109.50000 418.400000
24378 24377 24380 1 109.50000 418.400000
24377 24378 24379 1 115.00000 209.200000
24377 24380 24381 1 115.00000 209.200000
499 24382 6558 1 109.50000 418.400000
499 24382 24383 1 109.50000 418.400000
499 24382 24385 1 109.50000 418.400000
6558 24382 24383 1 109.50000 418.400000
6558 24382 24385 1 109.50000 418.400000
24383 24382 24385 1 109.50000 418.400000
24382 24383 24384 1 115.00000 209.200000
24382 24385 24386 1 115.00000 209.200000
512 24387 6639 1 109.50000 418.400000
512 24387 24388 1 109.50000 418.400000
512 24387 24390 1 109.50000 418.400000
6639 24387 24388 1 109.50000 418.400000
6639 24387 24390 1 109.50000 418.400000
24388 24387 24390 1 109.50000 418.400000
24387 24388 24389 1 115.00000 209.200000
24387 24390 24391 1 115.00000 209.200000
1683 24392 7171 1 109.50000 418.400000
1683 24392 24393 1 109.50000 418.400000
1683 24392 24395 1 109.50000 418.400000
7171 24392 24393 1 109.50000 418.400000
7171 24392 24395 1 109.50000 418.400000
24393 24392 24395 1 109.50000 418.400000
24392 24393 24394 1 115.00000 209.200000
24392 24395 24396 1 115.00000 209.200000
3504 24397 6148 1 109.50000 418.400000
3504 24397 24398 1 109.50000 418.400000
3504 24397 24400 1 109.50000 418.400000
6148 24397 24398 1 109.50000 418.400000
6148 24397 24400 1 109.50000 418.400000
24398 24397 24400 1 109.50000 418.400000
24397 24398 24399 1 115.00000 209.200000
24397 24400 24401 1 115.00000 209.200000
3035 24402 7636 1 109.50000 418.400000
3035 24402 24403 1 109.50000 418.400000
3035 24402 24405 1 109.50000 418.400000
7636 24402 24403 1 109.50000 418.400000
7636 24402 24405 1 109.50000 418.400000
24403 24402 24405 1 109.50000 418.400000
24402 24403 24404 1 115.00000 209.200000
24402 24405 24406 1 115.00000 209.200000
7812 24407 7813 1 109.50000 418.400000
7812 24407 24408 1 109.50000 418.400000
7812 24407 24410 1 109.50000 418.400000
7813 24407 24408 1 109.50000 418.400000
7813 24407 24410 1 109.50000 418.400000
24408 24407 24410 1 109.50000 418.400000
24407 24408 24409 1 115.00000 209.200000
24407 24410 24411 1 115.00000 209.200000
24 24412 8067 1 109.50000 418.400000
24 24412 24413 1 109.50000 418.400000
24 24412 24415 1 109.50000 418.400000
8067 24412 24413 1 109.50000 418.400000
8067 24412 24415 1 109.50000 418.400000
24413 24412 24415 1 109.50000 418.400000
24412 24413 24414 1 115.00000 209.200000
24412 24415 24416 1 115.00000 209.200000
5561 24417 8198 1 109.50000 418.400000
5561 24417 24418 1 109.50000 418.400000
5561 24417 24420 1 109.50000 418.400000
8198 24417 24418 1 109.50000 418.400000
8198 24417 24420 1 109.50000 418.400000
24418 24417 24420 1 109.50000 418.400000
24417 24418 24419 1 115.00000 209.200000
24417 24420 24421 1 115.00000 209.200000
8288 24422 8289 1 109.50000 418.400000
8288 24422 24423 1 109.50000 418.400000
8288 24422 24425 1 109.50000 418.400000
8289 24422 24423 1 109.50000 418.400000
8289 24422 24425 1 109.50000 418.400000
24423 24422 24425 1 109.50000 418.400000
24422 24423 24424 1 115.00000 209.200000
24422 24425 24426 1 115.00000 209.200000
7980 24427 8501 1 109.50000 418.400000
7980 24427 24428 1 109.50000 418.400000
7980 24427 24430 1 109.50000 418.400000
8501 24427 24428 1 109.50000 418.400000
8501 24427 24430 1 109.50000 418.400000
24428 24427 24430 1 109.50000 418.400000
24427 24428 24429 1 115.00000 209.200000
24427 24430 24431 1 115.00000 209.200000
2733 24432 8562 1 109.50000 418.400000
2733 24432 24433 1 109.50000 418.400000
2733 24432 24435 1 109.50000 418.400000
8562 24432 24433 1 109.50000 418.400000
8562 24432 24435 1 109.50000 418.400000
24433 24432 24435 1 109.50000 418.400000
24432 24433 24434 1 115.00000 209.200000
24432 24435 24436 1 115.00000 209.200000
4172 24437 8974 1 109.50000 418.400000
4172 24437 24438 1 109.50000 418.400000
4172 24437 24440 1 109.50000 418.400000
8974 24437 24438 1 109.50000 418.400000
8974 24437 24440 1 109.50000 418.400000
24438 24437 24440 1 109.50000 418.400000
24437 24438 24439 1 115.00000 209.200000
24437 24440 24441 1 115.00000 209.200000
9644 24442 9645 1 109.50000 418.400000
9644 24442 24443 1 109.50000 418.400000
9644 24442 24445 1 109.50000 418.400000
9645 24442 24443 1 109.50000 418.400000
9645 24442 24445 1 109.50000 418.400000
24443 24442 24445 1 109.50000 418.400000
24442 24443 24444 1 115.00000 209.200000
24442 24445 24446 1 115.00000 209.200000
7732 24447 8725 1 109.50000 418.400000
7732 24447 24448 1 109.50000 418.400000
7732 24447 24450 1 109.50000 418.400000
8725 24447 24448 1 109.50000 418.400000
8725 24447 24450 1 109.50000 418.400000
24448 24447 24450 1 109.50000 418.400000
24447 24448 24449 1 115.00000 209.200000
24447 24450 24451 1 115.00000 209.200000
5580 24452 5581 1 109.50000 418.400000
5580 24452 24453 1 109.50000 418.400000
5580 24452 24455 1 109.50000 418.400000
5581 24452 24453 1 109.50000 418.400000
5581 24452 24455 1 109.50000 418.400000
24453 24452 24455 1 109.50000 418.400000
24452 24453 24454 1 115.00000 209.200000
24452 24455 24456 1 115.00000 209.200000
2624 24457 10143 1 109.50000 418.400000
2624 24457 24458 1 109.50000 418.400000
2624 24457 24460 1 109.50000 418.400000
10143 24457 24458 1 109.50000 418.400000
10143 24457 24460 1 109.50000 418.400000
24458 24457 24460 1 109.50000 418.400000
24457 24458 24459 1 115.00000 209.200000
24457 24460 24461 1 115.00000 209.200000
3560 24462 8785 1 109.50000 418.400000
3560 24462 24463 1 109.50000 418.400000
3560 24462 24465 1 109.50000 418.400000
8785 24462 24463 1 109.50000 418.400000
8785 24462 24465 1 109.50000 418.400000
24463 24462 24465 1 109.50000 418.400000
24462 24463 24464 1 115.00000 209.200000
24462 24465 24466 1 115.00000 209.200000
8497 24467 9348 1 109.50000 418.400000
8497 24467 24468 1 109.50000 418.400000
8497 24467 24470 1 109.50000 418.400000
9348 24467 24468 1 109.50000 418.400000
9348 24467 24470 1 109.50000 418.400000
24468 24467 24470 1 109.50000 418.400000
24467 24468 24469 1 115.00000 209.200000
24467 24470 24471 1 115.00000 209.200000
985 24472 10949 1 109.50000 418.400000
985 24472 24473 1 109.50000 418.400000
985 24472 24475 1 109.50000 418.400000
10949 24472 24473 1 109.50000 418.400000
10949 24472 24475 1 109.50000 418.400000
24473 24472 24475 1 109.50000 418.400000
24472 24473 24474 1 115.00000 209.200000
24472 24475 24476 1 115.00000 209.200000
9691 24477 10852 1 109.50000 418.400000
9691 24477 24478 1 109.50000 418.400000
9691 24477 24480 1 109.50000 418.400000
10852 24477 24478 1 109.50000 418.400000
10852 24477 24480 1 109.50000 418.400000
24478 24477 24480 1 109.50000 418.400000
24477 24478 24479 1 115.00000 209.200000
24477 24480 24481 1 115.00000 209.200000
7909 24482 10821 1 109.50000 418.400000
7909 24482 24483 1 109.50000 418.400000
7909 24482 24485 1 109.50000 418.400000
10821 24482 24483 1 109.50000 418.400000
10821 24482 24485 1 109.50000 418.400000
24483 24482 24485 1 109.50000 418.400000
24482 24483 24484 1 115.00000 209.200000
24482 24485 24486 1 115.00000 209.200000

[ dihedrals ]
; ai aj ak al funct params
16280 16281 16282 16283 1 180.0000771 15.1670000 2
16280 16281 16282 16284 1 180.0000771 15.1670000 2
16283 16281 16282 16284 4 180.0000771 4.6024000 2
16280 16281 16290 16282 4 180.0000771 4.6024000 2
16280 16281 16290 16288 1 180.0000771 15.1670000 2
16280 16281 16290 16291 1 180.0000771 15.1670000 2
16282 16281 16290 16288 1 180.0000771 15.1670000 2
16282 16281 16290 16291 1 180.0000771 15.1670000 2
16283 16282 16281 16290 1 180.0000771 15.1670000 2
16284 16282 16281 16290 1 180.0000771 15.1670000 2
16281 16282 16284 16285 1 180.0000771 15.1670000 2
16281 16282 16284 16286 1 180.0000771 15.1670000 2
16283 16282 16284 16285 1 180.0000771 15.1670000 2
16283 16282 16284 16286 1 180.0000771 15.1670000 2
16282 16284 16286 16287 1 180.0000771 15.1670000 2
16282 16284 16286 16288 1 180.0000771 15.1670000 2
16285 16284 16286 16287 1 180.0000771 15.1670000 2
16285 16284 16286 16288 1 180.0000771 15.1670000 2
16282 16286 16284 16285 4 180.0000771 4.6024000 2
16284 16286 16288 16289 1 180.0000771 15.1670000 2
16284 16286 16288 16290 1 180.0000771 15.1670000 2
16287 16286 16288 16289 1 180.0000771 15.1670000 2
16287 16286 16288 16290 1 180.0000771 15.1670000 2
16284 16288 16286 16287 4 180.0000771 4.6024000 2
16281 16288 16290 16291 4 180.0000771 4.6024000 2
16286 16288 16290 16291 1 180.0000771 15.1670000 2
16289 16288 16290 16291 1 180.0000771 15.1670000 2
16281 16290 16288 16286 1 180.0000771 15.1670000 2
16281 16290 16288 16289 1 180.0000771 15.1670000 2
16286 16290 16288 16289 4 180.0000771 4.6024000 2
16294 16295 16296 16297 1 180.0000771 15.1670000 2
16294 16295 16296 16298 1 180.0000771 15.1670000 2
16297 16295 16296 16298 4 180.0000771 4.6024000 2
16294 16295 16304 16296 4 180.0000771 4.6024000 2
16294 16295 16304 16302 1 180.0000771 15.1670000 2
16294 16295 16304 16305 1 180.0000771 15.1670000 2
16296 16295 16304 16302 1 180.0000771 15.1670000 2
16296 16295 16304 16305 1 180.0000771 15.1670000 2
16297 16296 16295 16304 1 180.0000771 15.1670000 2
16298 16296 16295 16304 1 180.0000771 15.1670000 2
16295 16296 16298 16299 1 180.0000771 15.1670000 2
16295 16296 16298 16300 1 180.0000771 15.1670000 2
16297 16296 16298 16299 1 180.0000771 15.1670000 2
16297 16296 16298 16300 1 180.0000771 15.1670000 2
16296 16298 16300 16301 1 180.0000771 15.1670000 2
16296 16298 16300 16302 1 180.0000771 15.1670000 2
16299 16298 16300 16301 1 180.0000771 15.1670000 2
16299 16298 16300 16302 1 180.0000771 15.1670000 2
16296 16300 16298 16299 4 180.0000771 4.6024000 2
16298 16300 16302 16303 1 180.0000771 15.1670000 2
16298 16300 16302 16304 1 180.0000771 15.1670000 2
16301 16300 16302 16303 1 180.0000771 15.1670000 2
16301 16300 16302 16304 1 180.0000771 15.1670000 2
16298 16302 16300 16301 4 180.0000771 4.6024000 2
16295 16302 16304 16305 4 180.0000771 4.6024000 2
16300 16302 16304 16305 1 180.0000771 15.1670000 2
16303 16302 16304 16305 1 180.0000771 15.1670000 2
16295 16304 16302 16300 1 180.0000771 15.1670000 2
16295 16304 16302 16303 1 180.0000771 15.1670000 2
16300 16304 16302 16303 4 180.0000771 4.6024000 2
16308 16309 16310 16311 1 180.0000771 15.1670000 2
16308 16309 16310 16312 1 180.0000771 15.1670000 2
16311 16309 16310 16312 4 180.0000771 4.6024000 2
16308 16309 16318 16310 4 180.0000771 4.6024000 2
16308 16309 16318 16316 1 180.0000771 15.1670000 2
16308 16309 16318 16319 1 180.0000771 15.1670000 2
16310 16309 16318 16316 1 180.0000771 15.1670000 2
16310 16309 16318 16319 1 180.0000771 15.1670000 2
16311 16310 16309 16318 1 180.0000771 15.1670000 2
16312 16310 16309 16318 1 180.0000771 15.1670000 2
16309 16310 16312 16313 1 180.0000771 15.1670000 2
16309 16310 16312 16314 1 180.0000771 15.1670000 2
16311 16310 16312 16313 1 180.0000771 15.1670000 2
16311 16310 16312 16314 1 180.0000771 15.1670000 2
16310 16312 16314 16315 1 180.0000771 15.1670000 2
16310 16312 16314 16316 1 180.0000771 15.1670000 2
16313 16312 16314 16315 1 180.0000771 15.1670000 2
16313 16312 16314 16316 1 180.0000771 15.1670000 2
16310 16314 16312 16313 4 180.0000771 4.6024000 2
16312 16314 16316 16317 1 180.0000771 15.1670000 2
16312 16314 16316 16318 1 180.0000771 15.1670000 2
16315 16314 16316 16317 1 180.0000771 15.1670000 2
16315 16314 16316 16318 1 180.0000771 15.1670000 2
16312 16316 16314 16315 4 180.0000771 4.6024000 2
16309 16316 16318 16319 4 180.0000771 4.6024000 2
16314 16316 16318 16319 1 180.0000771 15.1670000 2
16317 16316 16318 16319 1 180.0000771 15.1670000 2
16309 16318 16316 16314 1 180.0000771 15.1670000 2
16309 16318 16316 16317 1 180.0000771 15.1670000 2
16314 16318 16316 16317 4 180.0000771 4.6024000 2
16322 16323 16324 16325 1 180.0000771 15.1670000 2
16322 16323 16324 16326 1 180.0000771 15.1670000 2
16325 16323 16324 16326 4 180.0000771 4.6024000 2
16322 16323 16332 16324 4 180.0000771 4.6024000 2
16322 16323 16332 16330 1 180.0000771 15.1670000 2
16322 16323 16332 16333 1 180.0000771 15.1670000 2
16324 16323 16332 16330 1 180.0000771 15.1670000 2
16324 16323 16332 16333 1 180.0000771 15.1670000 2
16325 16324 16323 16332 1 180.0000771 15.1670000 2
16326 16324 16323 16332 1 180.0000771 15.1670000 2
16323 16324 16326 16327 1 180.0000771 15.1670000 2
16323 16324 16326 16328 1 180.0000771 15.1670000 2
16325 16324 16326 16327 1 180.0000771 15.1670000 2
16325 16324 16326 16328 1 180.0000771 15.1670000 2
16324 16326 16328 16329 1 180.0000771 15.1670000 2
16324 16326 16328 16330 1 180.0000771 15.1670000 2
16327 16326 16328 16329 1 180.0000771 15.1670000 2
16327 16326 16328 16330 1 180.0000771 15.1670000 2
16324 16328 16326 16327 4 180.0000771 4.6024000 2
16326 16328 16330 16331 1 180.0000771 15.1670000 2
16326 16328 16330 16332 1 180.0000771 15.1670000 2
16329 16328 16330 16331 1 180.0000771 15.1670000 2
16329 16328 16330 16332 1 180.0000771 15.1670000 2
16326 16330 16328 16329 4 180.0000771 4.6024000 2
16323 16330 16332 16333 4 180.0000771 4.6024000 2
16328 16330 16332 16333 1 180.0000771 15.1670000 2
16331 16330 16332 16333 1 180.0000771 15.1670000 2
16323 16332 16330 16328 1 180.0000771 15.1670000 2
16323 16332 16330 16331 1 180.0000771 15.1670000 2
16328 16332 16330 16331 4 180.0000771 4.6024000 2
16336 16337 16338 16339 1 180.0000771 15.1670000 2
16336 16337 16338 16340 1 180.0000771 15.1670000 2
16339 16337 16338 16340 4 180.0000771 4.6024000 2
16336 16337 16346 16338 4 180.0000771 4.6024000 2
16336 16337 16346 16344 1 180.0000771 15.1670000 2
16336 16337 16346 16347 1 180.0000771 15.1670000 2
16338 16337 16346 16344 1 180.0000771 15.1670000 2
16338 16337 16346 16347 1 180.0000771 15.1670000 2
16339 16338 16337 16346 1 180.0000771 15.1670000 2
16340 16338 16337 16346 1 180.0000771 15.1670000 2
16337 16338 16340 16341 1 180.0000771 15.1670000 2
16337 16338 16340 16342 1 180.0000771 15.1670000 2
16339 16338 16340 16341 1 180.0000771 15.1670000 2
16339 16338 16340 16342 1 180.0000771 15.1670000 2
16338 16340 16342 16343 1 180.0000771 15.1670000 2
16338 16340 16342 16344 1 180.0000771 15.1670000 2
16341 16340 16342 16343 1 180.0000771 15.1670000 2
16341 16340 16342 16344 1 180.0000771 15.1670000 2
16338 16342 16340 16341 4 180.0000771 4.6024000 2
16340 16342 16344 16345 1 180.0000771 15.1670000 2
16340 16342 16344 16346 1 180.0000771 15.1670000 2
16343 16342 16344 16345 1 180.0000771 15.1670000 2
16343 16342 16344 16346 1 180.0000771 15.1670000 2
16340 16344 16342 16343 4 180.0000771 4.6024000 2
16337 16344 16346 16347 4 180.0000771 4.6024000 2
16342 16344 16346 16347 1 180.0000771 15.1670000 2
16345 16344 16346 16347 1 180.0000771 15.1670000 2
16337 16346 16344 16342 1 180.0000771 15.1670000 2
16337 16346 16344 16345 1 180.0000771 15.1670000 2
16342 16346 16344 16345 4 180.0000771 4.6024000 2
16350 16351 16352 16353 1 180.0000771 15.1670000 2
16350 16351 16352 16354 1 180.0000771 15.1670000 2
16353 16351 16352 16354 4 180.0000771 4.6024000 2
16350 16351 16360 16352 4 180.0000771 4.6024000 2
16350 16351 16360 16358 1 180.0000771 15.1670000 2
16350 16351 16360 16361 1 180.0000771 15.1670000 2
16352 16351 16360 16358 1 180.0000771 15.1670000 2
16352 16351 16360 16361 1 180.0000771 15.1670000 2
16353 16352 16351 16360 1 180.0000771 15.1670000 2
16354 16352 16351 16360 1 180.0000771 15.1670000 2
16351 16352 16354 16355 1 180.0000771 15.1670000 2
16351 16352 16354 16356 1 180.0000771 15.1670000 2
16353 16352 16354 16355 1 180.0000771 15.1670000 2
16353 16352 16354 16356 1 180.0000771 15.1670000 2
16352 16354 16356 16357 1 180.0000771 15.1670000 2
16352 16354 16356 16358 1 180.0000771 15.1670000 2
16355 16354 16356 16357 1 180.0000771 15.1670000 2
16355 16354 16356 16358 1 180.0000771 15.1670000 2
16352 16356 16354 16355 4 180.0000771 4.6024000 2
16354 16356 16358 16359 1 180.0000771 15.1670000 2
16354 16356 16358 16360 1 180.0000771 15.1670000 2
16357 16356 16358 16359 1 180.0000771 15.1670000 2
16357 16356 16358 16360 1 180.0000771 15.1670000 2
16354 16358 16356 16357 4 180.0000771 4.6024000 2
16351 16358 16360 16361 4 180.0000771 4.6024000 2
16356 16358 16360 16361 1 180.0000771 15.1670000 2
16359 16358 16360 16361 1 180.0000771 15.1670000 2
16351 16360 16358 16356 1 180.0000771 15.1670000 2
16351 16360 16358 16359 1 180.0000771 15.1670000 2
16356 16360 16358 16359 4 180.0000771 4.6024000 2
16364 16365 16366 16367 1 180.0000771 15.1670000 2
16364 16365 16366 16368 1 180.0000771 15.1670000 2
16367 16365 16366 16368 4 180.0000771 4.6024000 2
16364 16365 16374 16366 4 180.0000771 4.6024000 2
16364 16365 16374 16372 1 180.0000771 15.1670000 2
16364 16365 16374 16375 1 180.0000771 15.1670000 2
16366 16365 16374 16372 1 180.0000771 15.1670000 2
16366 16365 16374 16375 1 180.0000771 15.1670000 2
16367 16366 16365 16374 1 180.0000771 15.1670000 2
16368 16366 16365 16374 1 180.0000771 15.1670000 2
16365 16366 16368 16369 1 180.0000771 15.1670000 2
16365 16366 16368 16370 1 180.0000771 15.1670000 2
16367 16366 16368 16369 1 180.0000771 15.1670000 2
16367 16366 16368 16370 1 180.0000771 15.1670000 2
16366 16368 16370 16371 1 180.0000771 15.1670000 2
16366 16368 16370 16372 1 180.0000771 15.1670000 2
16369 16368 16370 16371 1 180.0000771 15.1670000 2
16369 16368 16370 16372 1 180.0000771 15.1670000 2
16366 16370 16368 16369 4 180.0000771 4.6024000 2
16368 16370 16372 16373 1 180.0000771 15.1670000 2
16368 16370 16372 16374 1 180.0000771 15.1670000 2
16371 16370 16372 16373 1 180.0000771 15.1670000 2
16371 16370 16372 16374 1 180.0000771 15.1670000 2
16368 16372 16370 16371 4 180.0000771 4.6024000 2
16365 16372 16374 16375 4 180.0000771 4.6024000 2
16370 16372 16374 16375 1 180.0000771 15.1670000 2
16373 16372 16374 16375 1 180.0000771 15.1670000 2
16365 16374 16372 16370 1 180.0000771 15.1670000 2
16365 16374 16372 16373 1 180.0000771 15.1670000 2
16370 16374 16372 16373 4 180.0000771 4.6024000 2
16378 16379 16380 16381 1 180.0000771 15.1670000 2
16378 16379 16380 16382 1 180.0000771 15.1670000 2
16381 16379 16380 16382 4 180.0000771 4.6024000 2
16378 16379 16388 16380 4 180.0000771 4.6024000 2
16378 16379 16388 16386 1 180.0000771 15.1670000 2
16378 16379 16388 16389 1 180.0000771 15.1670000 2
16380 16379 16388 16386 1 180.0000771 15.1670000 2
16380 16379 16388 16389 1 180.0000771 15.1670000 2
16381 16380 16379 16388 1 180.0000771 15.1670000 2
16382 16380 16379 16388 1 180.0000771 15.1670000 2
16379 16380 16382 16383 1 180.0000771 15.1670000 2
16379 16380 16382 16384 1 180.0000771 15.1670000 2
16381 16380 16382 16383 1 180.0000771 15.1670000 2
16381 16380 16382 16384 1 180.0000771 15.1670000 2
16380 16382 16384 16385 1 180.0000771 15.1670000 2
16380 16382 16384 16386 1 180.0000771 15.1670000 2
16383 16382 16384 16385 1 180.0000771 15.1670000 2
16383 16382 16384 16386 1 180.0000771 15.1670000 2
16380 16384 16382 16383 4 180.0000771 4.6024000 2
16382 16384 16386 16387 1 180.0000771 15.1670000 2
16382 16384 16386 16388 1 180.0000771 15.1670000 2
16385 16384 16386 16387 1 180.0000771 15.1670000 2
16385 16384 16386 16388 1 180.0000771 15.1670000 2
16382 16386 16384 16385 4 180.0000771 4.6024000 2
16379 16386 16388 16389 4 180.0000771 4.6024000 2
16384 16386 16388 16389 1 180.0000771 15.1670000 2
16387 16386 16388 16389 1 180.0000771 15.1670000 2
16379 16388 16386 16384 1 180.0000771 15.1670000 2
16379 16388 16386 16387 1 180.0000771 15.1670000 2
16384 16388 16386 16387 4 180.0000771 4.6024000 2
16392 16393 16394 16395 1 180.0000771 15.1670000 2
16392 16393 16394 16396 1 180.0000771 15.1670000 2
16395 16393 16394 16396 4 180.0000771 4.6024000 2
16392 16393 16402 16394 4 180.0000771 4.6024000 2
16392 16393 16402 16400 1 180.0000771 15.1670000 2
16392 16393 16402 16403 1 180.0000771 15.1670000 2
16394 16393 16402 16400 1 180.0000771 15.1670000 2
16394 16393 16402 16403 1 180.0000771 15.1670000 2
16395 16394 16393 16402 1 180.0000771 15.1670000 2
16396 16394 16393 16402 1 180.0000771 15.1670000 2
16393 16394 16396 16397 1 180.0000771 15.1670000 2
16393 16394 16396 16398 1 180.0000771 15.1670000 2
16395 16394 16396 16397 1 180.0000771 15.1670000 2
16395 16394 16396 16398 1 180.0000771 15.1670000 2
16394 16396 16398 16399 1 180.0000771 15.1670000 2
16394 16396 16398 16400 1 180.0000771 15.1670000 2
16397 16396 16398 16399 1 180.0000771 15.1670000 2
16397 16396 16398 16400 1 180.0000771 15.1670000 2
16394 16398 16396 16397 4 180.0000771 4.6024000 2
16396 16398 16400 16401 1 180.0000771 15.1670000 2
16396 16398 16400 16402 1 180.0000771 15.1670000 2
16399 16398 16400 16401 1 180.0000771 15.1670000 2
16399 16398 16400 16402 1 180.0000771 15.1670000 2
16396 16400 16398 16399 4 180.0000771 4.6024000 2
16393 16400 16402 16403 4 180.0000771 4.6024000 2
16398 16400 16402 16403 1 180.0000771 15.1670000 2
16401 16400 16402 16403 1 180.0000771 15.1670000 2
16393 16402 16400 16398 1 180.0000771 15.1670000 2
16393 16402 16400 16401 1 180.0000771 15.1670000 2
16398 16402 16400 16401 4 180.0000771 4.6024000 2
16406 16407 16408 16409 1 180.0000771 15.1670000 2
16406 16407 16408 16410 1 180.0000771 15.1670000 2
16409 16407 16408 16410 4 180.0000771 4.6024000 2
16406 16407 16416 16408 4 180.0000771 4.6024000 2
16406 16407 16416 16414 1 180.0000771 15.1670000 2
16406 16407 16416 16417 1 180.0000771 15.1670000 2
16408 16407 16416 16414 1 180.0000771 15.1670000 2
16408 16407 16416 16417 1 180.0000771 15.1670000 2
16409 16408 16407 16416 1 180.0000771 15.1670000 2
16410 16408 16407 16416 1 180.0000771 15.1670000 2
16407 16408 16410 16411 1 180.0000771 15.1670000 2
16407 16408 16410 16412 1 180.0000771 15.1670000 2
16409 16408 16410 16411 1 180.0000771 15.1670000 2
16409 16408 16410 16412 1 180.0000771 15.1670000 2
16408 16410 16412 16413 1 180.0000771 15.1670000 2
16408 16410 16412 16414 1 180.0000771 15.1670000 2
16411 16410 16412 16413 1 180.0000771 15.1670000 2
16411 16410 16412 16414 1 180.0000771 15.1670000 2
16408 16412 16410 16411 4 180.0000771 4.6024000 2
16410 16412 16414 16415 1 180.0000771 15.1670000 2
16410 16412 16414 16416 1 180.0000771 15.1670000 2
16413 16412 16414 16415 1 180.0000771 15.1670000 2
16413 16412 16414 16416 1 180.0000771 15.1670000 2
16410 16414 16412 16413 4 180.0000771 4.6024000 2
16407 16414 16416 16417 4 180.0000771 4.6024000 2
16412 16414 16416 16417 1 180.0000771 15.1670000 2
16415 16414 16416 16417 1 180.0000771 15.1670000 2
16407 16416 16414 16412 1 180.0000771 15.1670000 2
16407 16416 16414 16415 1 180.0000771 15.1670000 2
16412 16416 16414 16415 4 180.0000771 4.6024000 2
16420 16421 16422 16423 1 180.0000771 15.1670000 2
16420 16421 16422 16424 1 180.0000771 15.1670000 2
16423 16421 16422 16424 4 180.0000771 4.6024000 2
16420 16421 16430 16422 4 180.0000771 4.6024000 2
16420 16421 16430 16428 1 180.0000771 15.1670000 2
16420 16421 16430 16431 1 180.0000771 15.1670000 2
16422 16421 16430 16428 1 180.0000771 15.1670000 2
16422 16421 16430 16431 1 180.0000771 15.1670000 2
16423 16422 16421 16430 1 180.0000771 15.1670000 2
16424 16422 16421 16430 1 180.0000771 15.1670000 2
16421 16422 16424 16425 1 180.0000771 15.1670000 2
16421 16422 16424 16426 1 180.0000771 15.1670000 2
16423 16422 16424 16425 1 180.0000771 15.1670000 2
16423 16422 16424 16426 1 180.0000771 15.1670000 2
16422 16424 16426 16427 1 180.0000771 15.1670000 2
16422 16424 16426 16428 1 180.0000771 15.1670000 2
16425 16424 16426 16427 1 180.0000771 15.1670000 2
16425 16424 16426 16428 1 180.0000771 15.1670000 2
16422 16426 16424 16425 4 180.0000771 4.6024000 2
16424 16426 16428 16429 1 180.0000771 15.1670000 2
16424 16426 16428 16430 1 180.0000771 15.1670000 2
16427 16426 16428 16429 1 180.0000771 15.1670000 2
16427 16426 16428 16430 1 180.0000771 15.1670000 2
16424 16428 16426 16427 4 180.0000771 4.6024000 2
16421 16428 16430 16431 4 180.0000771 4.6024000 2
16426 16428 16430 16431 1 180.0000771 15.1670000 2
16429 16428 16430 16431 1 180.0000771 15.1670000 2
16421 16430 16428 16426 1 180.0000771 15.1670000 2
16421 16430 16428 16429 1 180.0000771 15.1670000 2
16426 16430 16428 16429 4 180.0000771 4.6024000 2
16434 16435 16436 16437 1 180.0000771 15.1670000 2
16434 16435 16436 16438 1 180.0000771 15.1670000 2
16437 16435 16436 16438 4 180.0000771 4.6024000 2
16434 16435 16444 16436 4 180.0000771 4.6024000 2
16434 16435 16444 16442 1 180.0000771 15.1670000 2
16434 16435 16444 16445 1 180.0000771 15.1670000 2
16436 16435 16444 16442 1 180.0000771 15.1670000 2
16436 16435 16444 16445 1 180.0000771 15.1670000 2
16437 16436 16435 16444 1 180.0000771 15.1670000 2
16438 16436 16435 16444 1 180.0000771 15.1670000 2
16435 16436 16438 16439 1 180.0000771 15.1670000 2
16435 16436 16438 16440 1 180.0000771 15.1670000 2
16437 16436 16438 16439 1 180.0000771 15.1670000 2
16437 16436 16438 16440 1 180.0000771 15.1670000 2
16436 16438 16440 16441 1 180.0000771 15.1670000 2
16436 16438 16440 16442 1 180.0000771 15.1670000 2
16439 16438 16440 16441 1 180.0000771 15.1670000 2
16439 16438 16440 16442 1 180.0000771 15.1670000 2
16436 16440 16438 16439 4 180.0000771 4.6024000 2
16438 16440 16442 16443 1 180.0000771 15.1670000 2
16438 16440 16442 16444 1 180.0000771 15.1670000 2
16441 16440 16442 16443 1 180.0000771 15.1670000 2
16441 16440 16442 16444 1 180.0000771 15.1670000 2
16438 16442 16440 16441 4 180.0000771 4.6024000 2
16435 16442 16444 16445 4 180.0000771 4.6024000 2
16440 16442 16444 16445 1 180.0000771 15.1670000 2
16443 16442 16444 16445 1 180.0000771 15.1670000 2
16435 16444 16442 16440 1 180.0000771 15.1670000 2
16435 16444 16442 16443 1 180.0000771 15.1670000 2
16440 16444 16442 16443 4 180.0000771 4.6024000 2
16448 16449 16450 16451 1 180.0000771 15.1670000 2
16448 16449 16450 16452 1 180.0000771 15.1670000 2
16451 16449 16450 16452 4 180.0000771 4.6024000 2
16448 16449 16458 16450 4 180.0000771 4.6024000 2
16448 16449 16458 16456 1 180.0000771 15.1670000 2
16448 16449 16458 16459 1 180.0000771 15.1670000 2
16450 16449 16458 16456 1 180.0000771 15.1670000 2
16450 16449 16458 16459 1 180.0000771 15.1670000 2
16451 16450 16449 16458 1 180.0000771 15.1670000 2
16452 16450 16449 16458 1 180.0000771 15.1670000 2
16449 16450 16452 16453 1 180.0000771 15.1670000 2
16449 16450 16452 16454 1 180.0000771 15.1670000 2
16451 16450 16452 16453 1 180.0000771 15.1670000 2
16451 16450 16452 16454 1 180.0000771 15.1670000 2
16450 16452 16454 16455 1 180.0000771 15.1670000 2
16450 16452 16454 16456 1 180.0000771 15.1670000 2
16453 16452 16454 16455 1 180.0000771 15.1670000 2
16453 16452 16454 16456 1 180.0000771 15.1670000 2
16450 16454 16452 16453 4 180.0000771 4.6024000 2
16452 16454 16456 16457 1 180.0000771 15.1670000 2
16452 16454 16456 16458 1 180.0000771 15.1670000 2
16455 16454 16456 16457 1 180.0000771 15.1670000 2
16455 16454 16456 16458 1 180.0000771 15.1670000 2
16452 16456 16454 16455 4 180.0000771 4.6024000 2
16449 16456 16458 16459 4 180.0000771 4.6024000 2
16454 16456 16458 16459 1 180.0000771 15.1670000 2
16457 16456 16458 16459 1 180.0000771 15.1670000 2
16449 16458 16456 16454 1 180.0000771 15.1670000 2
16449 16458 16456 16457 1 180.0000771 15.1670000 2
16454 16458 16456 16457 4 180.0000771 4.6024000 2
16462 16463 16464 16465 1 180.0000771 15.1670000 2
16462 16463 16464 16466 1 180.0000771 15.1670000 2
16465 16463 16464 16466 4 180.0000771 4.6024000 2
16462 16463 16472 16464 4 180.0000771 4.6024000 2
16462 16463 16472 16470 1 180.0000771 15.1670000 2
16462 16463 16472 16473 1 180.0000771 15.1670000 2
16464 16463 16472 16470 1 180.0000771 15.1670000 2
16464 16463 16472 16473 1 180.0000771 15.1670000 2
16465 16464 16463 16472 1 180.0000771 15.1670000 2
16466 16464 16463 16472 1 180.0000771 15.1670000 2
16463 16464 16466 16467 1 180.0000771 15.1670000 2
16463 16464 16466 16468 1 180.0000771 15.1670000 2
16465 16464 16466 16467 1 180.0000771 15.1670000 2
16465 16464 16466 16468 1 180.0000771 15.1670000 2
16464 16466 16468 16469 1 180.0000771 15.1670000 2
16464 16466 16468 16470 1 180.0000771 15.1670000 2
16467 16466 16468 16469 1 180.0000771 15.1670000 2
16467 16466 16468 16470 1 180.0000771 15.1670000 2
16464 16468 16466 16467 4 180.0000771 4.6024000 2
16466 16468 16470 16471 1 180.0000771 15.1670000 2
16466 16468 16470 16472 1 180.0000771 15.1670000 2
16469 16468 16470 16471 1 180.0000771 15.1670000 2
16469 16468 16470 16472 1 180.0000771 15.1670000 2
16466 16470 16468 16469 4 180.0000771 4.6024000 2
16463 16470 16472 16473 4 180.0000771 4.6024000 2
16468 16470 16472 16473 1 180.0000771 15.1670000 2
16471 16470 16472 16473 1 180.0000771 15.1670000 2
16463 16472 16470 16468 1 180.0000771 15.1670000 2
16463 16472 16470 16471 1 180.0000771 15.1670000 2
16468 16472 16470 16471 4 180.0000771 4.6024000 2
16476 16477 16478 16479 1 180.0000771 15.1670000 2
16476 16477 16478 16480 1 180.0000771 15.1670000 2
16479 16477 16478 16480 4 180.0000771 4.6024000 2
16476 16477 16486 16478 4 180.0000771 4.6024000 2
16476 16477 16486 16484 1 180.0000771 15.1670000 2
16476 16477 16486 16487 1 180.0000771 15.1670000 2
16478 16477 16486 16484 1 180.0000771 15.1670000 2
16478 16477 16486 16487 1 180.0000771 15.1670000 2
16479 16478 16477 16486 1 180.0000771 15.1670000 2
16480 16478 16477 16486 1 180.0000771 15.1670000 2
16477 16478 16480 16481 1 180.0000771 15.1670000 2
16477 16478 16480 16482 1 180.0000771 15.1670000 2
16479 16478 16480 16481 1 180.0000771 15.1670000 2
16479 16478 16480 16482 1 180.0000771 15.1670000 2
16478 16480 16482 16483 1 180.0000771 15.1670000 2
16478 16480 16482 16484 1 180.0000771 15.1670000 2
16481 16480 16482 16483 1 180.0000771 15.1670000 2
16481 16480 16482 16484 1 180.0000771 15.1670000 2
16478 16482 16480 16481 4 180.0000771 4.6024000 2
16480 16482 16484 16485 1 180.0000771 15.1670000 2
16480 16482 16484 16486 1 180.0000771 15.1670000 2
16483 16482 16484 16485 1 180.0000771 15.1670000 2
16483 16482 16484 16486 1 180.0000771 15.1670000 2
16480 16484 16482 16483 4 180.0000771 4.6024000 2
16477 16484 16486 16487 4 180.0000771 4.6024000 2
16482 16484 16486 16487 1 180.0000771 15.1670000 2
16485 16484 16486 16487 1 180.0000771 15.1670000 2
16477 16486 16484 16482 1 180.0000771 15.1670000 2
16477 16486 16484 16485 1 180.0000771 15.1670000 2
16482 16486 16484 16485 4 180.0000771 4.6024000 2
16490 16491 16492 16493 1 180.0000771 15.1670000 2
16490 16491 16492 16494 1 180.0000771 15.1670000 2
16493 16491 16492 16494 4 180.0000771 4.6024000 2
16490 16491 16500 16492 4 180.0000771 4.6024000 2
16490 16491 16500 16498 1 180.0000771 15.1670000 2
16490 16491 16500 16501 1 180.0000771 15.1670000 2
16492 16491 16500 16498 1 180.0000771 15.1670000 2
16492 16491 16500 16501 1 180.0000771 15.1670000 2
16493 16492 16491 16500 1 180.0000771 15.1670000 2
16494 16492 16491 16500 1 180.0000771 15.1670000 2
16491 16492 16494 16495 1 180.0000771 15.1670000 2
16491 16492 16494 16496 1 180.0000771 15.1670000 2
16493 16492 16494 16495 1 180.0000771 15.1670000 2
16493 16492 16494 16496 1 180.0000771 15.1670000 2
16492 16494 16496 16497 1 180.0000771 15.1670000 2
16492 16494 16496 16498 1 180.0000771 15.1670000 2
16495 16494 16496 16497 1 180.0000771 15.1670000 2
16495 16494 16496 16498 1 180.0000771 15.1670000 2
16492 16496 16494 16495 4 180.0000771 4.6024000 2
16494 16496 16498 16499 1 180.0000771 15.1670000 2
16494 16496 16498 16500 1 180.0000771 15.1670000 2
16497 16496 16498 16499 1 180.0000771 15.1670000 2
16497 16496 16498 16500 1 180.0000771 15.1670000 2
16494 16498 16496 16497 4 180.0000771 4.6024000 2
16491 16498 16500 16501 4 180.0000771 4.6024000 2
16496 16498 16500 16501 1 180.0000771 15.1670000 2
16499 16498 16500 16501 1 180.0000771 15.1670000 2
16491 16500 16498 16496 1 180.0000771 15.1670000 2
16491 16500 16498 16499 1 180.0000771 15.1670000 2
16496 16500 16498 16499 4 180.0000771 4.6024000 2
16504 16505 16506 16507 1 180.0000771 15.1670000 2
16504 16505 16506 16508 1 180.0000771 15.1670000 2
16507 16505 16506 16508 4 180.0000771 4.6024000 2
16504 16505 16514 16506 4 180.0000771 4.6024000 2
16504 16505 16514 16512 1 180.0000771 15.1670000 2
16504 16505 16514 16515 1 180.0000771 15.1670000 2
16506 16505 16514 16512 1 180.0000771 15.1670000 2
16506 16505 16514 16515 1 180.0000771 15.1670000 2
16507 16506 16505 16514 1 180.0000771 15.1670000 2
16508 16506 16505 16514 1 180.0000771 15.1670000 2
16505 16506 16508 16509 1 180.0000771 15.1670000 2
16505 16506 16508 16510 1 180.0000771 15.1670000 2
16507 16506 16508 16509 1 180.0000771 15.1670000 2
16507 16506 16508 16510 1 180.0000771 15.1670000 2
16506 16508 16510 16511 1 180.0000771 15.1670000 2
16506 16508 16510 16512 1 180.0000771 15.1670000 2
16509 16508 16510 16511 1 180.0000771 15.1670000 2
16509 16508 16510 16512 1 180.0000771 15.1670000 2
16506 16510 16508 16509 4 180.0000771 4.6024000 2
16508 16510 16512 16513 1 180.0000771 15.1670000 2
16508 16510 16512 16514 1 180.0000771 15.1670000 2
16511 16510 16512 16513 1 180.0000771 15.1670000 2
16511 16510 16512 16514 1 180.0000771 15.1670000 2
16508 16512 16510 16511 4 180.0000771 4.6024000 2
16505 16512 16514 16515 4 180.0000771 4.6024000 2
16510 16512 16514 16515 1 180.0000771 15.1670000 2
16513 16512 16514 16515 1 180.0000771 15.1670000 2
16505 16514 16512 16510 1 180.0000771 15.1670000 2
16505 16514 16512 16513 1 180.0000771 15.1670000 2
16510 16514 16512 16513 4 180.0000771 4.6024000 2
16518 16519 16520 16521 1 180.0000771 15.1670000 2
16518 16519 16520 16522 1 180.0000771 15.1670000 2
16521 16519 16520 16522 4 180.0000771 4.6024000 2
16518 16519 16528 16520 4 180.0000771 4.6024000 2
16518 16519 16528 16526 1 180.0000771 15.1670000 2
16518 16519 16528 16529 1 180.0000771 15.1670000 2
16520 16519 16528 16526 1 180.0000771 15.1670000 2
16520 16519 16528 16529 1 180.0000771 15.1670000 2
16521 16520 16519 16528 1 180.0000771 15.1670000 2
16522 16520 16519 16528 1 180.0000771 15.1670000 2
16519 16520 16522 16523 1 180.0000771 15.1670000 2
16519 16520 16522 16524 1 180.0000771 15.1670000 2
16521 16520 16522 16523 1 180.0000771 15.1670000 2
16521 16520 16522 16524 1 180.0000771 15.1670000 2
16520 16522 16524 16525 1 180.0000771 15.1670000 2
16520 16522 16524 16526 1 180.0000771 15.1670000 2
16523 16522 16524 16525 1 180.0000771 15.1670000 2
16523 16522 16524 16526 1 180.0000771 15.1670000 2
16520 16524 16522 16523 4 180.0000771 4.6024000 2
16522 16524 16526 16527 1 180.0000771 15.1670000 2
16522 16524 16526 16528 1 180.0000771 15.1670000 2
16525 16524 16526 16527 1 180.0000771 15.1670000 2
16525 16524 16526 16528 1 180.0000771 15.1670000 2
16522 16526 16524 16525 4 180.0000771 4.6024000 2
16519 16526 16528 16529 4 180.0000771 4.6024000 2
16524 16526 16528 16529 1 180.0000771 15.1670000 2
16527 16526 16528 16529 1 180.0000771 15.1670000 2
16519 16528 16526 16524 1 180.0000771 15.1670000 2
16519 16528 16526 16527 1 180.0000771 15.1670000 2
16524 16528 16526 16527 4 180.0000771 4.6024000 2
16532 16533 16534 16535 1 180.0000771 15.1670000 2
16532 16533 16534 16536 1 180.0000771 15.1670000 2
16535 16533 16534 16536 4 180.0000771 4.6024000 2
16532 16533 16542 16534 4 180.0000771 4.6024000 2
16532 16533 16542 16540 1 180.0000771 15.1670000 2
16532 16533 16542 16543 1 180.0000771 15.1670000 2
16534 16533 16542 16540 1 180.0000771 15.1670000 2
16534 16533 16542 16543 1 180.0000771 15.1670000 2
16535 16534 16533 16542 1 180.0000771 15.1670000 2
16536 16534 16533 16542 1 180.0000771 15.1670000 2
16533 16534 16536 16537 1 180.0000771 15.1670000 2
16533 16534 16536 16538 1 180.0000771 15.1670000 2
16535 16534 16536 16537 1 180.0000771 15.1670000 2
16535 16534 16536 16538 1 180.0000771 15.1670000 2
16534 16536 16538 16539 1 180.0000771 15.1670000 2
16534 16536 16538 16540 1 180.0000771 15.1670000 2
16537 16536 16538 16539 1 180.0000771 15.1670000 2
16537 16536 16538 16540 1 180.0000771 15.1670000 2
16534 16538 16536 16537 4 180.0000771 4.6024000 2
16536 16538 16540 16541 1 180.0000771 15.1670000 2
16536 16538 16540 16542 1 180.0000771 15.1670000 2
16539 16538 16540 16541 1 180.0000771 15.1670000 2
16539 16538 16540 16542 1 180.0000771 15.1670000 2
16536 16540 16538 16539 4 180.0000771 4.6024000 2
16533 16540 16542 16543 4 180.0000771 4.6024000 2
16538 16540 16542 16543 1 180.0000771 15.1670000 2
16541 16540 16542 16543 1 180.0000771 15.1670000 2
16533 16542 16540 16538 1 180.0000771 15.1670000 2
16533 16542 16540 16541 1 180.0000771 15.1670000 2
16538 16542 16540 16541 4 180.0000771 4.6024000 2
16546 16547 16548 16549 1 180.0000771 15.1670000 2
16546 16547 16548 16550 1 180.0000771 15.1670000 2
16549 16547 16548 16550 4 180.0000771 4.6024000 2
16546 16547 16556 16548 4 180.0000771 4.6024000 2
16546 16547 16556 16554 1 180.0000771 15.1670000 2
16546 16547 16556 16557 1 180.0000771 15.1670000 2
16548 16547 16556 16554 1 180.0000771 15.1670000 2
16548 16547 16556 16557 1 180.0000771 15.1670000 2
16549 16548 16547 16556 1 180.0000771 15.1670000 2
16550 16548 16547 16556 1 180.0000771 15.1670000 2
16547 16548 16550 16551 1 180.0000771 15.1670000 2
16547 16548 16550 16552 1 180.0000771 15.1670000 2
16549 16548 16550 16551 1 180.0000771 15.1670000 2
16549 16548 16550 16552 1 180.0000771 15.1670000 2
16548 16550 16552 16553 1 180.0000771 15.1670000 2
16548 16550 16552 16554 1 180.0000771 15.1670000 2
16551 16550 16552 16553 1 180.0000771 15.1670000 2
16551 16550 16552 16554 1 180.0000771 15.1670000 2
16548 16552 16550 16551 4 180.0000771 4.6024000 2
16550 16552 16554 16555 1 180.0000771 15.1670000 2
16550 16552 16554 16556 1 180.0000771 15.1670000 2
16553 16552 16554 16555 1 180.0000771 15.1670000 2
16553 16552 16554 16556 1 180.0000771 15.1670000 2
16550 16554 16552 16553 4 180.0000771 4.6024000 2
16547 16554 16556 16557 4 180.0000771 4.6024000 2
16552 16554 16556 16557 1 180.0000771 15.1670000 2
16555 16554 16556 16557 1 180.0000771 15.1670000 2
16547 16556 16554 16552 1 180.0000771 15.1670000 2
16547 16556 16554 16555 1 180.0000771 15.1670000 2
16552 16556 16554 16555 4 180.0000771 4.6024000 2
16560 16561 16562 16563 1 180.0000771 15.1670000 2
16560 16561 16562 16564 1 180.0000771 15.1670000 2
16563 16561 16562 16564 4 180.0000771 4.6024000 2
16560 16561 16570 16562 4 180.0000771 4.6024000 2
16560 16561 16570 16568 1 180.0000771 15.1670000 2
16560 16561 16570 16571 1 180.0000771 15.1670000 2
16562 16561 16570 16568 1 180.0000771 15.1670000 2
16562 16561 16570 16571 1 180.0000771 15.1670000 2
16563 16562 16561 16570 1 180.0000771 15.1670000 2
16564 16562 16561 16570 1 180.0000771 15.1670000 2
16561 16562 16564 16565 1 180.0000771 15.1670000 2
16561 16562 16564 16566 1 180.0000771 15.1670000 2
16563 16562 16564 16565 1 180.0000771 15.1670000 2
16563 16562 16564 16566 1 180.0000771 15.1670000 2
16562 16564 16566 16567 1 180.0000771 15.1670000 2
16562 16564 16566 16568 1 180.0000771 15.1670000 2
16565 16564 16566 16567 1 180.0000771 15.1670000 2
16565 16564 16566 16568 1 180.0000771 15.1670000 2
16562 16566 16564 16565 4 180.0000771 4.6024000 2
16564 16566 16568 16569 1 180.0000771 15.1670000 2
16564 16566 16568 16570 1 180.0000771 15.1670000 2
16567 16566 16568 16569 1 180.0000771 15.1670000 2
16567 16566 16568 16570 1 180.0000771 15.1670000 2
16564 16568 16566 16567 4 180.0000771 4.6024000 2
16561 16568 16570 16571 4 180.0000771 4.6024000 2
16566 16568 16570 16571 1 180.0000771 15.1670000 2
16569 16568 16570 16571 1 180.0000771 15.1670000 2
16561 16570 16568 16566 1 180.0000771 15.1670000 2
16561 16570 16568 16569 1 180.0000771 15.1670000 2
16566 16570 16568 16569 4 180.0000771 4.6024000 2
16574 16575 16576 16577 1 180.0000771 15.1670000 2
16574 16575 16576 16578 1 180.0000771 15.1670000 2
16577 16575 16576 16578 4 180.0000771 4.6024000 2
16574 16575 16584 16576 4 180.0000771 4.6024000 2
16574 16575 16584 16582 1 180.0000771 15.1670000 2
16574 16575 16584 16585 1 180.0000771 15.1670000 2
16576 16575 16584 16582 1 180.0000771 15.1670000 2
16576 16575 16584 16585 1 180.0000771 15.1670000 2
16577 16576 16575 16584 1 180.0000771 15.1670000 2
16578 16576 16575 16584 1 180.0000771 15.1670000 2
16575 16576 16578 16579 1 180.0000771 15.1670000 2
16575 16576 16578 16580 1 180.0000771 15.1670000 2
16577 16576 16578 16579 1 180.0000771 15.1670000 2
16577 16576 16578 16580 1 180.0000771 15.1670000 2
16576 16578 16580 16581 1 180.0000771 15.1670000 2
16576 16578 16580 16582 1 180.0000771 15.1670000 2
16579 16578 16580 16581 1 180.0000771 15.1670000 2
16579 16578 16580 16582 1 180.0000771 15.1670000 2
16576 16580 16578 16579 4 180.0000771 4.6024000 2
16578 16580 16582 16583 1 180.0000771 15.1670000 2
16578 16580 16582 16584 1 180.0000771 15.1670000 2
16581 16580 16582 16583 1 180.0000771 15.1670000 2
16581 16580 16582 16584 1 180.0000771 15.1670000 2
16578 16582 16580 16581 4 180.0000771 4.6024000 2
16575 16582 16584 16585 4 180.0000771 4.6024000 2
16580 16582 16584 16585 1 180.0000771 15.1670000 2
16583 16582 16584 16585 1 180.0000771 15.1670000 2
16575 16584 16582 16580 1 180.0000771 15.1670000 2
16575 16584 16582 16583 1 180.0000771 15.1670000 2
16580 16584 16582 16583 4 180.0000771 4.6024000 2
16588 16589 16590 16591 1 180.0000771 15.1670000 2
16588 16589 16590 16592 1 180.0000771 15.1670000 2
16591 16589 16590 16592 4 180.0000771 4.6024000 2
16588 16589 16598 16590 4 180.0000771 4.6024000 2
16588 16589 16598 16596 1 180.0000771 15.1670000 2
16588 16589 16598 16599 1 180.0000771 15.1670000 2
16590 16589 16598 16596 1 180.0000771 15.1670000 2
16590 16589 16598 16599 1 180.0000771 15.1670000 2
16591 16590 16589 16598 1 180.0000771 15.1670000 2
16592 16590 16589 16598 1 180.0000771 15.1670000 2
16589 16590 16592 16593 1 180.0000771 15.1670000 2
16589 16590 16592 16594 1 180.0000771 15.1670000 2
16591 16590 16592 16593 1 180.0000771 15.1670000 2
16591 16590 16592 16594 1 180.0000771 15.1670000 2
16590 16592 16594 16595 1 180.0000771 15.1670000 2
16590 16592 16594 16596 1 180.0000771 15.1670000 2
16593 16592 16594 16595 1 180.0000771 15.1670000 2
16593 16592 16594 16596 1 180.0000771 15.1670000 2
16590 16594 16592 16593 4 180.0000771 4.6024000 2
16592 16594 16596 16597 1 180.0000771 15.1670000 2
16592 16594 16596 16598 1 180.0000771 15.1670000 2
16595 16594 16596 16597 1 180.0000771 15.1670000 2
16595 16594 16596 16598 1 180.0000771 15.1670000 2
16592 16596 16594 16595 4 180.0000771 4.6024000 2
16589 16596 16598 16599 4 180.0000771 4.6024000 2
16594 16596 16598 16599 1 180.0000771 15.1670000 2
16597 16596 16598 16599 1 180.0000771 15.1670000 2
16589 16598 16596 16594 1 180.0000771 15.1670000 2
16589 16598 16596 16597 1 180.0000771 15.1670000 2
16594 16598 16596 16597 4 180.0000771 4.6024000 2
16602 16603 16604 16605 1 180.0000771 15.1670000 2
16602 16603 16604 16606 1 180.0000771 15.1670000 2
16605 16603 16604 16606 4 180.0000771 4.6024000 2
16602 16603 16612 16604 4 180.0000771 4.6024000 2
16602 16603 16612 16610 1 180.0000771 15.1670000 2
16602 16603 16612 16613 1 180.0000771 15.1670000 2
16604 16603 16612 16610 1 180.0000771 15.1670000 2
16604 16603 16612 16613 1 180.0000771 15.1670000 2
16605 16604 16603 16612 1 180.0000771 15.1670000 2
16606 16604 16603 16612 1 180.0000771 15.1670000 2
16603 16604 16606 16607 1 180.0000771 15.1670000 2
16603 16604 16606 16608 1 180.0000771 15.1670000 2
16605 16604 16606 16607 1 180.0000771 15.1670000 2
16605 16604 16606 16608 1 180.0000771 15.1670000 2
16604 16606 16608 16609 1 180.0000771 15.1670000 2
16604 16606 16608 16610 1 180.0000771 15.1670000 2
16607 16606 16608 16609 1 180.0000771 15.1670000 2
16607 16606 16608 16610 1 180.0000771 15.1670000 2
16604 16608 16606 16607 4 180.0000771 4.6024000 2
16606 16608 16610 16611 1 180.0000771 15.1670000 2
16606 16608 16610 16612 1 180.0000771 15.1670000 2
16609 16608 16610 16611 1 180.0000771 15.1670000 2
16609 16608 16610 16612 1 180.0000771 15.1670000 2
16606 16610 16608 16609 4 180.0000771 4.6024000 2
16603 16610 16612 16613 4 180.0000771 4.6024000 2
16608 16610 16612 16613 1 180.0000771 15.1670000 2
16611 16610 16612 16613 1 180.0000771 15.1670000 2
16603 16612 16610 16608 1 180.0000771 15.1670000 2
16603 16612 16610 16611 1 180.0000771 15.1670000 2
16608 16612 16610 16611 4 180.0000771 4.6024000 2
16616 16617 16618 16619 1 180.0000771 15.1670000 2
16616 16617 16618 16620 1 180.0000771 15.1670000 2
16619 16617 16618 16620 4 180.0000771 4.6024000 2
16616 16617 16626 16618 4 180.0000771 4.6024000 2
16616 16617 16626 16624 1 180.0000771 15.1670000 2
16616 16617 16626 16627 1 180.0000771 15.1670000 2
16618 16617 16626 16624 1 180.0000771 15.1670000 2
16618 16617 16626 16627 1 180.0000771 15.1670000 2
16619 16618 16617 16626 1 180.0000771 15.1670000 2
16620 16618 16617 16626 1 180.0000771 15.1670000 2
16617 16618 16620 16621 1 180.0000771 15.1670000 2
16617 16618 16620 16622 1 180.0000771 15.1670000 2
16619 16618 16620 16621 1 180.0000771 15.1670000 2
16619 16618 16620 16622 1 180.0000771 15.1670000 2
16618 16620 16622 16623 1 180.0000771 15.1670000 2
16618 16620 16622 16624 1 180.0000771 15.1670000 2
16621 16620 16622 16623 1 180.0000771 15.1670000 2
16621 16620 16622 16624 1 180.0000771 15.1670000 2
16618 16622 16620 16621 4 180.0000771 4.6024000 2
16620 16622 16624 16625 1 180.0000771 15.1670000 2
16620 16622 16624 16626 1 180.0000771 15.1670000 2
16623 16622 16624 16625 1 180.0000771 15.1670000 2
16623 16622 16624 16626 1 180.0000771 15.1670000 2
16620 16624 16622 16623 4 180.0000771 4.6024000 2
16617 16624 16626 16627 4 180.0000771 4.6024000 2
16622 16624 16626 16627 1 180.0000771 15.1670000 2
16625 16624 16626 16627 1 180.0000771 15.1670000 2
16617 16626 16624 16622 1 180.0000771 15.1670000 2
16617 16626 16624 16625 1 180.0000771 15.1670000 2
16622 16626 16624 16625 4 180.0000771 4.6024000 2
16630 16631 16632 16633 1 180.0000771 15.1670000 2
16630 16631 16632 16634 1 180.0000771 15.1670000 2
16633 16631 16632 16634 4 180.0000771 4.6024000 2
16630 16631 16640 16632 4 180.0000771 4.6024000 2
16630 16631 16640 16638 1 180.0000771 15.1670000 2
16630 16631 16640 16641 1 180.0000771 15.1670000 2
16632 16631 16640 16638 1 180.0000771 15.1670000 2
16632 16631 16640 16641 1 180.0000771 15.1670000 2
16633 16632 16631 16640 1 180.0000771 15.1670000 2
16634 16632 16631 16640 1 180.0000771 15.1670000 2
16631 16632 16634 16635 1 180.0000771 15.1670000 2
16631 16632 16634 16636 1 180.0000771 15.1670000 2
16633 16632 16634 16635 1 180.0000771 15.1670000 2
16633 16632 16634 16636 1 180.0000771 15.1670000 2
16632 16634 16636 16637 1 180.0000771 15.1670000 2
16632 16634 16636 16638 1 180.0000771 15.1670000 2
16635 16634 16636 16637 1 180.0000771 15.1670000 2
16635 16634 16636 16638 1 180.0000771 15.1670000 2
16632 16636 16634 16635 4 180.0000771 4.6024000 2
16634 16636 16638 16639 1 180.0000771 15.1670000 2
16634 16636 16638 16640 1 180.0000771 15.1670000 2
16637 16636 16638 16639 1 180.0000771 15.1670000 2
16637 16636 16638 16640 1 180.0000771 15.1670000 2
16634 16638 16636 16637 4 180.0000771 4.6024000 2
16631 16638 16640 16641 4 180.0000771 4.6024000 2
16636 16638 16640 16641 1 180.0000771 15.1670000 2
16639 16638 16640 16641 1 180.0000771 15.1670000 2
16631 16640 16638 16636 1 180.0000771 15.1670000 2
16631 16640 16638 16639 1 180.0000771 15.1670000 2
16636 16640 16638 16639 4 180.0000771 4.6024000 2
16644 16645 16646 16647 1 180.0000771 15.1670000 2
16644 16645 16646 16648 1 180.0000771 15.1670000 2
16647 16645 16646 16648 4 180.0000771 4.6024000 2
16644 16645 16654 16646 4 180.0000771 4.6024000 2
16644 16645 16654 16652 1 180.0000771 15.1670000 2
16644 16645 16654 16655 1 180.0000771 15.1670000 2
16646 16645 16654 16652 1 180.0000771 15.1670000 2
16646 16645 16654 16655 1 180.0000771 15.1670000 2
16647 16646 16645 16654 1 180.0000771 15.1670000 2
16648 16646 16645 16654 1 180.0000771 15.1670000 2
16645 16646 16648 16649 1 180.0000771 15.1670000 2
16645 16646 16648 16650 1 180.0000771 15.1670000 2
16647 16646 16648 16649 1 180.0000771 15.1670000 2
16647 16646 16648 16650 1 180.0000771 15.1670000 2
16646 16648 16650 16651 1 180.0000771 15.1670000 2
16646 16648 16650 16652 1 180.0000771 15.1670000 2
16649 16648 16650 16651 1 180.0000771 15.1670000 2
16649 16648 16650 16652 1 180.0000771 15.1670000 2
16646 16650 16648 16649 4 180.0000771 4.6024000 2
16648 16650 16652 16653 1 180.0000771 15.1670000 2
16648 16650 16652 16654 1 180.0000771 15.1670000 2
16651 16650 16652 16653 1 180.0000771 15.1670000 2
16651 16650 16652 16654 1 180.0000771 15.1670000 2
16648 16652 16650 16651 4 180.0000771 4.6024000 2
16645 16652 16654 16655 4 180.0000771 4.6024000 2
16650 16652 16654 16655 1 180.0000771 15.1670000 2
16653 16652 16654 16655 1 180.0000771 15.1670000 2
16645 16654 16652 16650 1 180.0000771 15.1670000 2
16645 16654 16652 16653 1 180.0000771 15.1670000 2
16650 16654 16652 16653 4 180.0000771 4.6024000 2
16658 16659 16660 16661 1 180.0000771 15.1670000 2
16658 16659 16660 16662 1 180.0000771 15.1670000 2
16661 16659 16660 16662 4 180.0000771 4.6024000 2
16658 16659 16668 16660 4 180.0000771 4.6024000 2
16658 16659 16668 16666 1 180.0000771 15.1670000 2
16658 16659 16668 16669 1 180.0000771 15.1670000 2
16660 16659 16668 16666 1 180.0000771 15.1670000 2
16660 16659 16668 16669 1 180.0000771 15.1670000 2
16661 16660 16659 16668 1 180.0000771 15.1670000 2
16662 16660 16659 16668 1 180.0000771 15.1670000 2
16659 16660 16662 16663 1 180.0000771 15.1670000 2
16659 16660 16662 16664 1 180.0000771 15.1670000 2
16661 16660 16662 16663 1 180.0000771 15.1670000 2
16661 16660 16662 16664 1 180.0000771 15.1670000 2
16660 16662 16664 16665 1 180.0000771 15.1670000 2
16660 16662 16664 16666 1 180.0000771 15.1670000 2
16663 16662 16664 16665 1 180.0000771 15.1670000 2
16663 16662 16664 16666 1 180.0000771 15.1670000 2
16660 16664 16662 16663 4 180.0000771 4.6024000 2
16662 16664 16666 16667 1 180.0000771 15.1670000 2
16662 16664 16666 16668 1 180.0000771 15.1670000 2
16665 16664 16666 16667 1 180.0000771 15.1670000 2
16665 16664 16666 16668 1 180.0000771 15.1670000 2
16662 16666 16664 16665 4 180.0000771 4.6024000 2
16659 16666 16668 16669 4 180.0000771 4.6024000 2
16664 16666 16668 16669 1 180.0000771 15.1670000 2
16667 16666 16668 16669 1 180.0000771 15.1670000 2
16659 16668 16666 16664 1 180.0000771 15.1670000 2
16659 16668 16666 16667 1 180.0000771 15.1670000 2
16664 16668 16666 16667 4 180.0000771 4.6024000 2
16672 16673 16674 16675 1 180.0000771 15.1670000 2
16672 16673 16674 16676 1 180.0000771 15.1670000 2
16675 16673 16674 16676 4 180.0000771 4.6024000 2
16672 16673 16682 16674 4 180.0000771 4.6024000 2
16672 16673 16682 16680 1 180.0000771 15.1670000 2
16672 16673 16682 16683 1 180.0000771 15.1670000 2
16674 16673 16682 16680 1 180.0000771 15.1670000 2
16674 16673 16682 16683 1 180.0000771 15.1670000 2
16675 16674 16673 16682 1 180.0000771 15.1670000 2
16676 16674 16673 16682 1 180.0000771 15.1670000 2
16673 16674 16676 16677 1 180.0000771 15.1670000 2
16673 16674 16676 16678 1 180.0000771 15.1670000 2
16675 16674 16676 16677 1 180.0000771 15.1670000 2
16675 16674 16676 16678 1 180.0000771 15.1670000 2
16674 16676 16678 16679 1 180.0000771 15.1670000 2
16674 16676 16678 16680 1 180.0000771 15.1670000 2
16677 16676 16678 16679 1 180.0000771 15.1670000 2
16677 16676 16678 16680 1 180.0000771 15.1670000 2
16674 16678 16676 16677 4 180.0000771 4.6024000 2
16676 16678 16680 16681 1 180.0000771 15.1670000 2
16676 16678 16680 16682 1 180.0000771 15.1670000 2
16679 16678 16680 16681 1 180.0000771 15.1670000 2
16679 16678 16680 16682 1 180.0000771 15.1670000 2
16676 16680 16678 16679 4 180.0000771 4.6024000 2
16673 16680 16682 16683 4 180.0000771 4.6024000 2
16678 16680 16682 16683 1 180.0000771 15.1670000 2
16681 16680 16682 16683 1 180.0000771 15.1670000 2
16673 16682 16680 16678 1 180.0000771 15.1670000 2
16673 16682 16680 16681 1 180.0000771 15.1670000 2
16678 16682 16680 16681 4 180.0000771 4.6024000 2
16686 16687 16688 16689 1 180.0000771 15.1670000 2
16686 16687 16688 16690 1 180.0000771 15.1670000 2
16689 16687 16688 16690 4 180.0000771 4.6024000 2
16686 16687 16696 16688 4 180.0000771 4.6024000 2
16686 16687 16696 16694 1 180.0000771 15.1670000 2
16686 16687 16696 16697 1 180.0000771 15.1670000 2
16688 16687 16696 16694 1 180.0000771 15.1670000 2
16688 16687 16696 16697 1 180.0000771 15.1670000 2
16689 16688 16687 16696 1 180.0000771 15.1670000 2
16690 16688 16687 16696 1 180.0000771 15.1670000 2
16687 16688 16690 16691 1 180.0000771 15.1670000 2
16687 16688 16690 16692 1 180.0000771 15.1670000 2
16689 16688 16690 16691 1 180.0000771 15.1670000 2
16689 16688 16690 16692 1 180.0000771 15.1670000 2
16688 16690 16692 16693 1 180.0000771 15.1670000 2
16688 16690 16692 16694 1 180.0000771 15.1670000 2
16691 16690 16692 16693 1 180.0000771 15.1670000 2
16691 16690 16692 16694 1 180.0000771 15.1670000 2
16688 16692 16690 16691 4 180.0000771 4.6024000 2
16690 16692 16694 16695 1 180.0000771 15.1670000 2
16690 16692 16694 16696 1 180.0000771 15.1670000 2
16693 16692 16694 16695 1 180.0000771 15.1670000 2
16693 16692 16694 16696 1 180.0000771 15.1670000 2
16690 16694 16692 16693 4 180.0000771 4.6024000 2
16687 16694 16696 16697 4 180.0000771 4.6024000 2
16692 16694 16696 16697 1 180.0000771 15.1670000 2
16695 16694 16696 16697 1 180.0000771 15.1670000 2
16687 16696 16694 16692 1 180.0000771 15.1670000 2
16687 16696 16694 16695 1 180.0000771 15.1670000 2
16692 16696 16694 16695 4 180.0000771 4.6024000 2
16700 16701 16702 16703 1 180.0000771 15.1670000 2
16700 16701 16702 16704 1 180.0000771 15.1670000 2
16703 16701 16702 16704 4 180.0000771 4.6024000 2
16700 16701 16710 16702 4 180.0000771 4.6024000 2
16700 16701 16710 16708 1 180.0000771 15.1670000 2
16700 16701 16710 16711 1 180.0000771 15.1670000 2
16702 16701 16710 16708 1 180.0000771 15.1670000 2
16702 16701 16710 16711 1 180.0000771 15.1670000 2
16703 16702 16701 16710 1 180.0000771 15.1670000 2
16704 16702 16701 16710 1 180.0000771 15.1670000 2
16701 16702 16704 16705 1 180.0000771 15.1670000 2
16701 16702 16704 16706 1 180.0000771 15.1670000 2
16703 16702 16704 16705 1 180.0000771 15.1670000 2
16703 16702 16704 16706 1 180.0000771 15.1670000 2
16702 16704 16706 16707 1 180.0000771 15.1670000 2
16702 16704 16706 16708 1 180.0000771 15.1670000 2
16705 16704 16706 16707 1 180.0000771 15.1670000 2
16705 16704 16706 16708 1 180.0000771 15.1670000 2
16702 16706 16704 16705 4 180.0000771 4.6024000 2
16704 16706 16708 16709 1 180.0000771 15.1670000 2
16704 16706 16708 16710 1 180.0000771 15.1670000 2
16707 16706 16708 16709 1 180.0000771 15.1670000 2
16707 16706 16708 16710 1 180.0000771 15.1670000 2
16704 16708 16706 16707 4 180.0000771 4.6024000 2
16701 16708 16710 16711 4 180.0000771 4.6024000 2
16706 16708 16710 16711 1 180.0000771 15.1670000 2
16709 16708 16710 16711 1 180.0000771 15.1670000 2
16701 16710 16708 16706 1 180.0000771 15.1670000 2
16701 16710 16708 16709 1 180.0000771 15.1670000 2
16706 16710 16708 16709 4 180.0000771 4.6024000 2
16714 16715 16716 16717 1 180.0000771 15.1670000 2
16714 16715 16716 16718 1 180.0000771 15.1670000 2
16717 16715 16716 16718 4 180.0000771 4.6024000 2
16714 16715 16724 16716 4 180.0000771 4.6024000 2
16714 16715 16724 16722 1 180.0000771 15.1670000 2
16714 16715 16724 16725 1 180.0000771 15.1670000 2
16716 16715 16724 16722 1 180.0000771 15.1670000 2
16716 16715 16724 16725 1 180.0000771 15.1670000 2
16717 16716 16715 16724 1 180.0000771 15.1670000 2
16718 16716 16715 16724 1 180.0000771 15.1670000 2
16715 16716 16718 16719 1 180.0000771 15.1670000 2
16715 16716 16718 16720 1 180.0000771 15.1670000 2
16717 16716 16718 16719 1 180.0000771 15.1670000 2
16717 16716 16718 16720 1 180.0000771 15.1670000 2
16716 16718 16720 16721 1 180.0000771 15.1670000 2
16716 16718 16720 16722 1 180.0000771 15.1670000 2
16719 16718 16720 16721 1 180.0000771 15.1670000 2
16719 16718 16720 16722 1 180.0000771 15.1670000 2
16716 16720 16718 16719 4 180.0000771 4.6024000 2
16718 16720 16722 16723 1 180.0000771 15.1670000 2
16718 16720 16722 16724 1 180.0000771 15.1670000 2
16721 16720 16722 16723 1 180.0000771 15.1670000 2
16721 16720 16722 16724 1 180.0000771 15.1670000 2
16718 16722 16720 16721 4 180.0000771 4.6024000 2
16715 16722 16724 16725 4 180.0000771 4.6024000 2
16720 16722 16724 16725 1 180.0000771 15.1670000 2
16723 16722 16724 16725 1 180.0000771 15.1670000 2
16715 16724 16722 16720 1 180.0000771 15.1670000 2
16715 16724 16722 16723 1 180.0000771 15.1670000 2
16720 16724 16722 16723 4 180.0000771 4.6024000 2
16728 16729 16730 16731 1 180.0000771 15.1670000 2
16728 16729 16730 16732 1 180.0000771 15.1670000 2
16731 16729 16730 16732 4 180.0000771 4.6024000 2
16728 16729 16738 16730 4 180.0000771 4.6024000 2
16728 16729 16738 16736 1 180.0000771 15.1670000 2
16728 16729 16738 16739 1 180.0000771 15.1670000 2
16730 16729 16738 16736 1 180.0000771 15.1670000 2
16730 16729 16738 16739 1 180.0000771 15.1670000 2
16731 16730 16729 16738 1 180.0000771 15.1670000 2
16732 16730 16729 16738 1 180.0000771 15.1670000 2
16729 16730 16732 16733 1 180.0000771 15.1670000 2
16729 16730 16732 16734 1 180.0000771 15.1670000 2
16731 16730 16732 16733 1 180.0000771 15.1670000 2
16731 16730 16732 16734 1 180.0000771 15.1670000 2
16730 16732 16734 16735 1 180.0000771 15.1670000 2
16730 16732 16734 16736 1 180.0000771 15.1670000 2
16733 16732 16734 16735 1 180.0000771 15.1670000 2
16733 16732 16734 16736 1 180.0000771 15.1670000 2
16730 16734 16732 16733 4 180.0000771 4.6024000 2
16732 16734 16736 16737 1 180.0000771 15.1670000 2
16732 16734 16736 16738 1 180.0000771 15.1670000 2
16735 16734 16736 16737 1 180.0000771 15.1670000 2
16735 16734 16736 16738 1 180.0000771 15.1670000 2
16732 16736 16734 16735 4 180.0000771 4.6024000 2
16729 16736 16738 16739 4 180.0000771 4.6024000 2
16734 16736 16738 16739 1 180.0000771 15.1670000 2
16737 16736 16738 16739 1 180.0000771 15.1670000 2
16729 16738 16736 16734 1 180.0000771 15.1670000 2
16729 16738 16736 16737 1 180.0000771 15.1670000 2
16734 16738 16736 16737 4 180.0000771 4.6024000 2
16742 16743 16744 16745 1 180.0000771 15.1670000 2
16742 16743 16744 16746 1 180.0000771 15.1670000 2
16745 16743 16744 16746 4 180.0000771 4.6024000 2
16742 16743 16752 16744 4 180.0000771 4.6024000 2
16742 16743 16752 16750 1 180.0000771 15.1670000 2
16742 16743 16752 16753 1 180.0000771 15.1670000 2
16744 16743 16752 16750 1 180.0000771 15.1670000 2
16744 16743 16752 16753 1 180.0000771 15.1670000 2
16745 16744 16743 16752 1 180.0000771 15.1670000 2
16746 16744 16743 16752 1 180.0000771 15.1670000 2
16743 16744 16746 16747 1 180.0000771 15.1670000 2
16743 16744 16746 16748 1 180.0000771 15.1670000 2
16745 16744 16746 16747 1 180.0000771 15.1670000 2
16745 16744 16746 16748 1 180.0000771 15.1670000 2
16744 16746 16748 16749 1 180.0000771 15.1670000 2
16744 16746 16748 16750 1 180.0000771 15.1670000 2
16747 16746 16748 16749 1 180.0000771 15.1670000 2
16747 16746 16748 16750 1 180.0000771 15.1670000 2
16744 16748 16746 16747 4 180.0000771 4.6024000 2
16746 16748 16750 16751 1 180.0000771 15.1670000 2
16746 16748 16750 16752 1 180.0000771 15.1670000 2
16749 16748 16750 16751 1 180.0000771 15.1670000 2
16749 16748 16750 16752 1 180.0000771 15.1670000 2
16746 16750 16748 16749 4 180.0000771 4.6024000 2
16743 16750 16752 16753 4 180.0000771 4.6024000 2
16748 16750 16752 16753 1 180.0000771 15.1670000 2
16751 16750 16752 16753 1 180.0000771 15.1670000 2
16743 16752 16750 16748 1 180.0000771 15.1670000 2
16743 16752 16750 16751 1 180.0000771 15.1670000 2
16748 16752 16750 16751 4 180.0000771 4.6024000 2
16756 16757 16758 16759 1 180.0000771 15.1670000 2
16756 16757 16758 16760 1 180.0000771 15.1670000 2
16759 16757 16758 16760 4 180.0000771 4.6024000 2
16756 16757 16766 16758 4 180.0000771 4.6024000 2
16756 16757 16766 16764 1 180.0000771 15.1670000 2
16756 16757 16766 16767 1 180.0000771 15.1670000 2
16758 16757 16766 16764 1 180.0000771 15.1670000 2
16758 16757 16766 16767 1 180.0000771 15.1670000 2
16759 16758 16757 16766 1 180.0000771 15.1670000 2
16760 16758 16757 16766 1 180.0000771 15.1670000 2
16757 16758 16760 16761 1 180.0000771 15.1670000 2
16757 16758 16760 16762 1 180.0000771 15.1670000 2
16759 16758 16760 16761 1 180.0000771 15.1670000 2
16759 16758 16760 16762 1 180.0000771 15.1670000 2
16758 16760 16762 16763 1 180.0000771 15.1670000 2
16758 16760 16762 16764 1 180.0000771 15.1670000 2
16761 16760 16762 16763 1 180.0000771 15.1670000 2
16761 16760 16762 16764 1 180.0000771 15.1670000 2
16758 16762 16760 16761 4 180.0000771 4.6024000 2
16760 16762 16764 16765 1 180.0000771 15.1670000 2
16760 16762 16764 16766 1 180.0000771 15.1670000 2
16763 16762 16764 16765 1 180.0000771 15.1670000 2
16763 16762 16764 16766 1 180.0000771 15.1670000 2
16760 16764 16762 16763 4 180.0000771 4.6024000 2
16757 16764 16766 16767 4 180.0000771 4.6024000 2
16762 16764 16766 16767 1 180.0000771 15.1670000 2
16765 16764 16766 16767 1 180.0000771 15.1670000 2
16757 16766 16764 16762 1 180.0000771 15.1670000 2
16757 16766 16764 16765 1 180.0000771 15.1670000 2
16762 16766 16764 16765 4 180.0000771 4.6024000 2
16770 16771 16772 16773 1 180.0000771 15.1670000 2
16770 16771 16772 16774 1 180.0000771 15.1670000 2
16773 16771 16772 16774 4 180.0000771 4.6024000 2
16770 16771 16780 16772 4 180.0000771 4.6024000 2
16770 16771 16780 16778 1 180.0000771 15.1670000 2
16770 16771 16780 16781 1 180.0000771 15.1670000 2
16772 16771 16780 16778 1 180.0000771 15.1670000 2
16772 16771 16780 16781 1 180.0000771 15.1670000 2
16773 16772 16771 16780 1 180.0000771 15.1670000 2
16774 16772 16771 16780 1 180.0000771 15.1670000 2
16771 16772 16774 16775 1 180.0000771 15.1670000 2
16771 16772 16774 16776 1 180.0000771 15.1670000 2
16773 16772 16774 16775 1 180.0000771 15.1670000 2
16773 16772 16774 16776 1 180.0000771 15.1670000 2
16772 16774 16776 16777 1 180.0000771 15.1670000 2
16772 16774 16776 16778 1 180.0000771 15.1670000 2
16775 16774 16776 16777 1 180.0000771 15.1670000 2
16775 16774 16776 16778 1 180.0000771 15.1670000 2
16772 16776 16774 16775 4 180.0000771 4.6024000 2
16774 16776 16778 16779 1 180.0000771 15.1670000 2
16774 16776 16778 16780 1 180.0000771 15.1670000 2
16777 16776 16778 16779 1 180.0000771 15.1670000 2
16777 16776 16778 16780 1 180.0000771 15.1670000 2
16774 16778 16776 16777 4 180.0000771 4.6024000 2
16771 16778 16780 16781 4 180.0000771 4.6024000 2
16776 16778 16780 16781 1 180.0000771 15.1670000 2
16779 16778 16780 16781 1 180.0000771 15.1670000 2
16771 16780 16778 16776 1 180.0000771 15.1670000 2
16771 16780 16778 16779 1 180.0000771 15.1670000 2
16776 16780 16778 16779 4 180.0000771 4.6024000 2
16784 16785 16786 16787 1 180.0000771 15.1670000 2
16784 16785 16786 16788 1 180.0000771 15.1670000 2
16787 16785 16786 16788 4 180.0000771 4.6024000 2
16784 16785 16794 16786 4 180.0000771 4.6024000 2
16784 16785 16794 16792 1 180.0000771 15.1670000 2
16784 16785 16794 16795 1 180.0000771 15.1670000 2
16786 16785 16794 16792 1 180.0000771 15.1670000 2
16786 16785 16794 16795 1 180.0000771 15.1670000 2
16787 16786 16785 16794 1 180.0000771 15.1670000 2
16788 16786 16785 16794 1 180.0000771 15.1670000 2
16785 16786 16788 16789 1 180.0000771 15.1670000 2
16785 16786 16788 16790 1 180.0000771 15.1670000 2
16787 16786 16788 16789 1 180.0000771 15.1670000 2
16787 16786 16788 16790 1 180.0000771 15.1670000 2
16786 16788 16790 16791 1 180.0000771 15.1670000 2
16786 16788 16790 16792 1 180.0000771 15.1670000 2
16789 16788 16790 16791 1 180.0000771 15.1670000 2
16789 16788 16790 16792 1 180.0000771 15.1670000 2
16786 16790 16788 16789 4 180.0000771 4.6024000 2
16788 16790 16792 16793 1 180.0000771 15.1670000 2
16788 16790 16792 16794 1 180.0000771 15.1670000 2
16791 16790 16792 16793 1 180.0000771 15.1670000 2
16791 16790 16792 16794 1 180.0000771 15.1670000 2
16788 16792 16790 16791 4 180.0000771 4.6024000 2
16785 16792 16794 16795 4 180.0000771 4.6024000 2
16790 16792 16794 16795 1 180.0000771 15.1670000 2
16793 16792 16794 16795 1 180.0000771 15.1670000 2
16785 16794 16792 16790 1 180.0000771 15.1670000 2
16785 16794 16792 16793 1 180.0000771 15.1670000 2
16790 16794 16792 16793 4 180.0000771 4.6024000 2
16798 16799 16800 16801 1 180.0000771 15.1670000 2
16798 16799 16800 16802 1 180.0000771 15.1670000 2
16801 16799 16800 16802 4 180.0000771 4.6024000 2
16798 16799 16808 16800 4 180.0000771 4.6024000 2
16798 16799 16808 16806 1 180.0000771 15.1670000 2
16798 16799 16808 16809 1 180.0000771 15.1670000 2
16800 16799 16808 16806 1 180.0000771 15.1670000 2
16800 16799 16808 16809 1 180.0000771 15.1670000 2
16801 16800 16799 16808 1 180.0000771 15.1670000 2
16802 16800 16799 16808 1 180.0000771 15.1670000 2
16799 16800 16802 16803 1 180.0000771 15.1670000 2
16799 16800 16802 16804 1 180.0000771 15.1670000 2
16801 16800 16802 16803 1 180.0000771 15.1670000 2
16801 16800 16802 16804 1 180.0000771 15.1670000 2
16800 16802 16804 16805 1 180.0000771 15.1670000 2
16800 16802 16804 16806 1 180.0000771 15.1670000 2
16803 16802 16804 16805 1 180.0000771 15.1670000 2
16803 16802 16804 16806 1 180.0000771 15.1670000 2
16800 16804 16802 16803 4 180.0000771 4.6024000 2
16802 16804 16806 16807 1 180.0000771 15.1670000 2
16802 16804 16806 16808 1 180.0000771 15.1670000 2
16805 16804 16806 16807 1 180.0000771 15.1670000 2
16805 16804 16806 16808 1 180.0000771 15.1670000 2
16802 16806 16804 16805 4 180.0000771 4.6024000 2
16799 16806 16808 16809 4 180.0000771 4.6024000 2
16804 16806 16808 16809 1 180.0000771 15.1670000 2
16807 16806 16808 16809 1 180.0000771 15.1670000 2
16799 16808 16806 16804 1 180.0000771 15.1670000 2
16799 16808 16806 16807 1 180.0000771 15.1670000 2
16804 16808 16806 16807 4 180.0000771 4.6024000 2
16812 16813 16814 16815 1 180.0000771 15.1670000 2
16812 16813 16814 16816 1 180.0000771 15.1670000 2
16815 16813 16814 16816 4 180.0000771 4.6024000 2
16812 16813 16822 16814 4 180.0000771 4.6024000 2
16812 16813 16822 16820 1 180.0000771 15.1670000 2
16812 16813 16822 16823 1 180.0000771 15.1670000 2
16814 16813 16822 16820 1 180.0000771 15.1670000 2
16814 16813 16822 16823 1 180.0000771 15.1670000 2
16815 16814 16813 16822 1 180.0000771 15.1670000 2
16816 16814 16813 16822 1 180.0000771 15.1670000 2
16813 16814 16816 16817 1 180.0000771 15.1670000 2
16813 16814 16816 16818 1 180.0000771 15.1670000 2
16815 16814 16816 16817 1 180.0000771 15.1670000 2
16815 16814 16816 16818 1 180.0000771 15.1670000 2
16814 16816 16818 16819 1 180.0000771 15.1670000 2
16814 16816 16818 16820 1 180.0000771 15.1670000 2
16817 16816 16818 16819 1 180.0000771 15.1670000 2
16817 16816 16818 16820 1 180.0000771 15.1670000 2
16814 16818 16816 16817 4 180.0000771 4.6024000 2
16816 16818 16820 16821 1 180.0000771 15.1670000 2
16816 16818 16820 16822 1 180.0000771 15.1670000 2
16819 16818 16820 16821 1 180.0000771 15.1670000 2
16819 16818 16820 16822 1 180.0000771 15.1670000 2
16816 16820 16818 16819 4 180.0000771 4.6024000 2
16813 16820 16822 16823 4 180.0000771 4.6024000 2
16818 16820 16822 16823 1 180.0000771 15.1670000 2
16821 16820 16822 16823 1 180.0000771 15.1670000 2
16813 16822 16820 16818 1 180.0000771 15.1670000 2
16813 16822 16820 16821 1 180.0000771 15.1670000 2
16818 16822 16820 16821 4 180.0000771 4.6024000 2
16826 16827 16828 16829 1 180.0000771 15.1670000 2
16826 16827 16828 16830 1 180.0000771 15.1670000 2
16829 16827 16828 16830 4 180.0000771 4.6024000 2
16826 16827 16836 16828 4 180.0000771 4.6024000 2
16826 16827 16836 16834 1 180.0000771 15.1670000 2
16826 16827 16836 16837 1 180.0000771 15.1670000 2
16828 16827 16836 16834 1 180.0000771 15.1670000 2
16828 16827 16836 16837 1 180.0000771 15.1670000 2
16829 16828 16827 16836 1 180.0000771 15.1670000 2
16830 16828 16827 16836 1 180.0000771 15.1670000 2
16827 16828 16830 16831 1 180.0000771 15.1670000 2
16827 16828 16830 16832 1 180.0000771 15.1670000 2
16829 16828 16830 16831 1 180.0000771 15.1670000 2
16829 16828 16830 16832 1 180.0000771 15.1670000 2
16828 16830 16832 16833 1 180.0000771 15.1670000 2
16828 16830 16832 16834 1 180.0000771 15.1670000 2
16831 16830 16832 16833 1 180.0000771 15.1670000 2
16831 16830 16832 16834 1 180.0000771 15.1670000 2
16828 16832 16830 16831 4 180.0000771 4.6024000 2
16830 16832 16834 16835 1 180.0000771 15.1670000 2
16830 16832 16834 16836 1 180.0000771 15.1670000 2
16833 16832 16834 16835 1 180.0000771 15.1670000 2
16833 16832 16834 16836 1 180.0000771 15.1670000 2
16830 16834 16832 16833 4 180.0000771 4.6024000 2
16827 16834 16836 16837 4 180.0000771 4.6024000 2
16832 16834 16836 16837 1 180.0000771 15.1670000 2
16835 16834 16836 16837 1 180.0000771 15.1670000 2
16827 16836 16834 16832 1 180.0000771 15.1670000 2
16827 16836 16834 16835 1 180.0000771 15.1670000 2
16832 16836 16834 16835 4 180.0000771 4.6024000 2
16840 16841 16842 16843 1 180.0000771 15.1670000 2
16840 16841 16842 16844 1 180.0000771 15.1670000 2
16843 16841 16842 16844 4 180.0000771 4.6024000 2
16840 16841 16850 16842 4 180.0000771 4.6024000 2
16840 16841 16850 16848 1 180.0000771 15.1670000 2
16840 16841 16850 16851 1 180.0000771 15.1670000 2
16842 16841 16850 16848 1 180.0000771 15.1670000 2
16842 16841 16850 16851 1 180.0000771 15.1670000 2
16843 16842 16841 16850 1 180.0000771 15.1670000 2
16844 16842 16841 16850 1 180.0000771 15.1670000 2
16841 16842 16844 16845 1 180.0000771 15.1670000 2
16841 16842 16844 16846 1 180.0000771 15.1670000 2
16843 16842 16844 16845 1 180.0000771 15.1670000 2
16843 16842 16844 16846 1 180.0000771 15.1670000 2
16842 16844 16846 16847 1 180.0000771 15.1670000 2
16842 16844 16846 16848 1 180.0000771 15.1670000 2
16845 16844 16846 16847 1 180.0000771 15.1670000 2
16845 16844 16846 16848 1 180.0000771 15.1670000 2
16842 16846 16844 16845 4 180.0000771 4.6024000 2
16844 16846 16848 16849 1 180.0000771 15.1670000 2
16844 16846 16848 16850 1 180.0000771 15.1670000 2
16847 16846 16848 16849 1 180.0000771 15.1670000 2
16847 16846 16848 16850 1 180.0000771 15.1670000 2
16844 16848 16846 16847 4 180.0000771 4.6024000 2
16841 16848 16850 16851 4 180.0000771 4.6024000 2
16846 16848 16850 16851 1 180.0000771 15.1670000 2
16849 16848 16850 16851 1 180.0000771 15.1670000 2
16841 16850 16848 16846 1 180.0000771 15.1670000 2
16841 16850 16848 16849 1 180.0000771 15.1670000 2
16846 16850 16848 16849 4 180.0000771 4.6024000 2
16854 16855 16856 16857 1 180.0000771 15.1670000 2
16854 16855 16856 16858 1 180.0000771 15.1670000 2
16857 16855 16856 16858 4 180.0000771 4.6024000 2
16854 16855 16864 16856 4 180.0000771 4.6024000 2
16854 16855 16864 16862 1 180.0000771 15.1670000 2
16854 16855 16864 16865 1 180.0000771 15.1670000 2
16856 16855 16864 16862 1 180.0000771 15.1670000 2
16856 16855 16864 16865 1 180.0000771 15.1670000 2
16857 16856 16855 16864 1 180.0000771 15.1670000 2
16858 16856 16855 16864 1 180.0000771 15.1670000 2
16855 16856 16858 16859 1 180.0000771 15.1670000 2
16855 16856 16858 16860 1 180.0000771 15.1670000 2
16857 16856 16858 16859 1 180.0000771 15.1670000 2
16857 16856 16858 16860 1 180.0000771 15.1670000 2
16856 16858 16860 16861 1 180.0000771 15.1670000 2
16856 16858 16860 16862 1 180.0000771 15.1670000 2
16859 16858 16860 16861 1 180.0000771 15.1670000 2
16859 16858 16860 16862 1 180.0000771 15.1670000 2
16856 16860 16858 16859 4 180.0000771 4.6024000 2
16858 16860 16862 16863 1 180.0000771 15.1670000 2
16858 16860 16862 16864 1 180.0000771 15.1670000 2
16861 16860 16862 16863 1 180.0000771 15.1670000 2
16861 16860 16862 16864 1 180.0000771 15.1670000 2
16858 16862 16860 16861 4 180.0000771 4.6024000 2
16855 16862 16864 16865 4 180.0000771 4.6024000 2
16860 16862 16864 16865 1 180.0000771 15.1670000 2
16863 16862 16864 16865 1 180.0000771 15.1670000 2
16855 16864 16862 16860 1 180.0000771 15.1670000 2
16855 16864 16862 16863 1 180.0000771 15.1670000 2
16860 16864 16862 16863 4 180.0000771 4.6024000 2
16868 16869 16870 16871 1 180.0000771 15.1670000 2
16868 16869 16870 16872 1 180.0000771 15.1670000 2
16871 16869 16870 16872 4 180.0000771 4.6024000 2
16868 16869 16878 16870 4 180.0000771 4.6024000 2
16868 16869 16878 16876 1 180.0000771 15.1670000 2
16868 16869 16878 16879 1 180.0000771 15.1670000 2
16870 16869 16878 16876 1 180.0000771 15.1670000 2
16870 16869 16878 16879 1 180.0000771 15.1670000 2
16871 16870 16869 16878 1 180.0000771 15.1670000 2
16872 16870 16869 16878 1 180.0000771 15.1670000 2
16869 16870 16872 16873 1 180.0000771 15.1670000 2
16869 16870 16872 16874 1 180.0000771 15.1670000 2
16871 16870 16872 16873 1 180.0000771 15.1670000 2
16871 16870 16872 16874 1 180.0000771 15.1670000 2
16870 16872 16874 16875 1 180.0000771 15.1670000 2
16870 16872 16874 16876 1 180.0000771 15.1670000 2
16873 16872 16874 16875 1 180.0000771 15.1670000 2
16873 16872 16874 16876 1 180.0000771 15.1670000 2
16870 16874 16872 16873 4 180.0000771 4.6024000 2
16872 16874 16876 16877 1 180.0000771 15.1670000 2
16872 16874 16876 16878 1 180.0000771 15.1670000 2
16875 16874 16876 16877 1 180.0000771 15.1670000 2
16875 16874 16876 16878 1 180.0000771 15.1670000 2
16872 16876 16874 16875 4 180.0000771 4.6024000 2
16869 16876 16878 16879 4 180.0000771 4.6024000 2
16874 16876 16878 16879 1 180.0000771 15.1670000 2
16877 16876 16878 16879 1 180.0000771 15.1670000 2
16869 16878 16876 16874 1 180.0000771 15.1670000 2
16869 16878 16876 16877 1 180.0000771 15.1670000 2
16874 16878 16876 16877 4 180.0000771 4.6024000 2
16882 16883 16884 16885 1 180.0000771 15.1670000 2
16882 16883 16884 16886 1 180.0000771 15.1670000 2
16885 16883 16884 16886 4 180.0000771 4.6024000 2
16882 16883 16892 16884 4 180.0000771 4.6024000 2
16882 16883 16892 16890 1 180.0000771 15.1670000 2
16882 16883 16892 16893 1 180.0000771 15.1670000 2
16884 16883 16892 16890 1 180.0000771 15.1670000 2
16884 16883 16892 16893 1 180.0000771 15.1670000 2
16885 16884 16883 16892 1 180.0000771 15.1670000 2
16886 16884 16883 16892 1 180.0000771 15.1670000 2
16883 16884 16886 16887 1 180.0000771 15.1670000 2
16883 16884 16886 16888 1 180.0000771 15.1670000 2
16885 16884 16886 16887 1 180.0000771 15.1670000 2
16885 16884 16886 16888 1 180.0000771 15.1670000 2
16884 16886 16888 16889 1 180.0000771 15.1670000 2
16884 16886 16888 16890 1 180.0000771 15.1670000 2
16887 16886 16888 16889 1 180.0000771 15.1670000 2
16887 16886 16888 16890 1 180.0000771 15.1670000 2
16884 16888 16886 16887 4 180.0000771 4.6024000 2
16886 16888 16890 16891 1 180.0000771 15.1670000 2
16886 16888 16890 16892 1 180.0000771 15.1670000 2
16889 16888 16890 16891 1 180.0000771 15.1670000 2
16889 16888 16890 16892 1 180.0000771 15.1670000 2
16886 16890 16888 16889 4 180.0000771 4.6024000 2
16883 16890 16892 16893 4 180.0000771 4.6024000 2
16888 16890 16892 16893 1 180.0000771 15.1670000 2
16891 16890 16892 16893 1 180.0000771 15.1670000 2
16883 16892 16890 16888 1 180.0000771 15.1670000 2
16883 16892 16890 16891 1 180.0000771 15.1670000 2
16888 16892 16890 16891 4 180.0000771 4.6024000 2
16896 16897 16898 16899 1 180.0000771 15.1670000 2
16896 16897 16898 16900 1 180.0000771 15.1670000 2
16899 16897 16898 16900 4 180.0000771 4.6024000 2
16896 16897 16906 16898 4 180.0000771 4.6024000 2
16896 16897 16906 16904 1 180.0000771 15.1670000 2
16896 16897 16906 16907 1 180.0000771 15.1670000 2
16898 16897 16906 16904 1 180.0000771 15.1670000 2
16898 16897 16906 16907 1 180.0000771 15.1670000 2
16899 16898 16897 16906 1 180.0000771 15.1670000 2
16900 16898 16897 16906 1 180.0000771 15.1670000 2
16897 16898 16900 16901 1 180.0000771 15.1670000 2
16897 16898 16900 16902 1 180.0000771 15.1670000 2
16899 16898 16900 16901 1 180.0000771 15.1670000 2
16899 16898 16900 16902 1 180.0000771 15.1670000 2
16898 16900 16902 16903 1 180.0000771 15.1670000 2
16898 16900 16902 16904 1 180.0000771 15.1670000 2
16901 16900 16902 16903 1 180.0000771 15.1670000 2
16901 16900 16902 16904 1 180.0000771 15.1670000 2
16898 16902 16900 16901 4 180.0000771 4.6024000 2
16900 16902 16904 16905 1 180.0000771 15.1670000 2
16900 16902 16904 16906 1 180.0000771 15.1670000 2
16903 16902 16904 16905 1 180.0000771 15.1670000 2
16903 16902 16904 16906 1 180.0000771 15.1670000 2
16900 16904 16902 16903 4 180.0000771 4.6024000 2
16897 16904 16906 16907 4 180.0000771 4.6024000 2
16902 16904 16906 16907 1 180.0000771 15.1670000 2
16905 16904 16906 16907 1 180.0000771 15.1670000 2
16897 16906 16904 16902 1 180.0000771 15.1670000 2
16897 16906 16904 16905 1 180.0000771 15.1670000 2
16902 16906 16904 16905 4 180.0000771 4.6024000 2
16910 16911 16912 16913 1 180.0000771 15.1670000 2
16910 16911 16912 16914 1 180.0000771 15.1670000 2
16913 16911 16912 16914 4 180.0000771 4.6024000 2
16910 16911 16920 16912 4 180.0000771 4.6024000 2
16910 16911 16920 16918 1 180.0000771 15.1670000 2
16910 16911 16920 16921 1 180.0000771 15.1670000 2
16912 16911 16920 16918 1 180.0000771 15.1670000 2
16912 16911 16920 16921 1 180.0000771 15.1670000 2
16913 16912 16911 16920 1 180.0000771 15.1670000 2
16914 16912 16911 16920 1 180.0000771 15.1670000 2
16911 16912 16914 16915 1 180.0000771 15.1670000 2
16911 16912 16914 16916 1 180.0000771 15.1670000 2
16913 16912 16914 16915 1 180.0000771 15.1670000 2
16913 16912 16914 16916 1 180.0000771 15.1670000 2
16912 16914 16916 16917 1 180.0000771 15.1670000 2
16912 16914 16916 16918 1 180.0000771 15.1670000 2
16915 16914 16916 16917 1 180.0000771 15.1670000 2
16915 16914 16916 16918 1 180.0000771 15.1670000 2
16912 16916 16914 16915 4 180.0000771 4.6024000 2
16914 16916 16918 16919 1 180.0000771 15.1670000 2
16914 16916 16918 16920 1 180.0000771 15.1670000 2
16917 16916 16918 16919 1 180.0000771 15.1670000 2
16917 16916 16918 16920 1 180.0000771 15.1670000 2
16914 16918 16916 16917 4 180.0000771 4.6024000 2
16911 16918 16920 16921 4 180.0000771 4.6024000 2
16916 16918 16920 16921 1 180.0000771 15.1670000 2
16919 16918 16920 16921 1 180.0000771 15.1670000 2
16911 16920 16918 16916 1 180.0000771 15.1670000 2
16911 16920 16918 16919 1 180.0000771 15.1670000 2
16916 16920 16918 16919 4 180.0000771 4.6024000 2
16924 16925 16926 16927 1 180.0000771 15.1670000 2
16924 16925 16926 16928 1 180.0000771 15.1670000 2
16927 16925 16926 16928 4 180.0000771 4.6024000 2
16924 16925 16934 16926 4 180.0000771 4.6024000 2
16924 16925 16934 16932 1 180.0000771 15.1670000 2
16924 16925 16934 16935 1 180.0000771 15.1670000 2
16926 16925 16934 16932 1 180.0000771 15.1670000 2
16926 16925 16934 16935 1 180.0000771 15.1670000 2
16927 16926 16925 16934 1 180.0000771 15.1670000 2
16928 16926 16925 16934 1 180.0000771 15.1670000 2
16925 16926 16928 16929 1 180.0000771 15.1670000 2
16925 16926 16928 16930 1 180.0000771 15.1670000 2
16927 16926 16928 16929 1 180.0000771 15.1670000 2
16927 16926 16928 16930 1 180.0000771 15.1670000 2
16926 16928 16930 16931 1 180.0000771 15.1670000 2
16926 16928 16930 16932 1 180.0000771 15.1670000 2
16929 16928 16930 16931 1 180.0000771 15.1670000 2
16929 16928 16930 16932 1 180.0000771 15.1670000 2
16926 16930 16928 16929 4 180.0000771 4.6024000 2
16928 16930 16932 16933 1 180.0000771 15.1670000 2
16928 16930 16932 16934 1 180.0000771 15.1670000 2
16931 16930 16932 16933 1 180.0000771 15.1670000 2
16931 16930 16932 16934 1 180.0000771 15.1670000 2
16928 16932 16930 16931 4 180.0000771 4.6024000 2
16925 16932 16934 16935 4 180.0000771 4.6024000 2
16930 16932 16934 16935 1 180.0000771 15.1670000 2
16933 16932 16934 16935 1 180.0000771 15.1670000 2
16925 16934 16932 16930 1 180.0000771 15.1670000 2
16925 16934 16932 16933 1 180.0000771 15.1670000 2
16930 16934 16932 16933 4 180.0000771 4.6024000 2
16938 16939 16940 16941 1 180.0000771 15.1670000 2
16938 16939 16940 16942 1 180.0000771 15.1670000 2
16941 16939 16940 16942 4 180.0000771 4.6024000 2
16938 16939 16948 16940 4 180.0000771 4.6024000 2
16938 16939 16948 16946 1 180.0000771 15.1670000 2
16938 16939 16948 16949 1 180.0000771 15.1670000 2
16940 16939 16948 16946 1 180.0000771 15.1670000 2
16940 16939 16948 16949 1 180.0000771 15.1670000 2
16941 16940 16939 16948 1 180.0000771 15.1670000 2
16942 16940 16939 16948 1 180.0000771 15.1670000 2
16939 16940 16942 16943 1 180.0000771 15.1670000 2
16939 16940 16942 16944 1 180.0000771 15.1670000 2
16941 16940 16942 16943 1 180.0000771 15.1670000 2
16941 16940 16942 16944 1 180.0000771 15.1670000 2
16940 16942 16944 16945 1 180.0000771 15.1670000 2
16940 16942 16944 16946 1 180.0000771 15.1670000 2
16943 16942 16944 16945 1 180.0000771 15.1670000 2
16943 16942 16944 16946 1 180.0000771 15.1670000 2
16940 16944 16942 16943 4 180.0000771 4.6024000 2
16942 16944 16946 16947 1 180.0000771 15.1670000 2
16942 16944 16946 16948 1 180.0000771 15.1670000 2
16945 16944 16946 16947 1 180.0000771 15.1670000 2
16945 16944 16946 16948 1 180.0000771 15.1670000 2
16942 16946 16944 16945 4 180.0000771 4.6024000 2
16939 16946 16948 16949 4 180.0000771 4.6024000 2
16944 16946 16948 16949 1 180.0000771 15.1670000 2
16947 16946 16948 16949 1 180.0000771 15.1670000 2
16939 16948 16946 16944 1 180.0000771 15.1670000 2
16939 16948 16946 16947 1 180.0000771 15.1670000 2
16944 16948 16946 16947 4 180.0000771 4.6024000 2
16952 16953 16954 16955 1 180.0000771 15.1670000 2
16952 16953 16954 16956 1 180.0000771 15.1670000 2
16955 16953 16954 16956 4 180.0000771 4.6024000 2
16952 16953 16962 16954 4 180.0000771 4.6024000 2
16952 16953 16962 16960 1 180.0000771 15.1670000 2
16952 16953 16962 16963 1 180.0000771 15.1670000 2
16954 16953 16962 16960 1 180.0000771 15.1670000 2
16954 16953 16962 16963 1 180.0000771 15.1670000 2
16955 16954 16953 16962 1 180.0000771 15.1670000 2
16956 16954 16953 16962 1 180.0000771 15.1670000 2
16953 16954 16956 16957 1 180.0000771 15.1670000 2
16953 16954 16956 16958 1 180.0000771 15.1670000 2
16955 16954 16956 16957 1 180.0000771 15.1670000 2
16955 16954 16956 16958 1 180.0000771 15.1670000 2
16954 16956 16958 16959 1 180.0000771 15.1670000 2
16954 16956 16958 16960 1 180.0000771 15.1670000 2
16957 16956 16958 16959 1 180.0000771 15.1670000 2
16957 16956 16958 16960 1 180.0000771 15.1670000 2
16954 16958 16956 16957 4 180.0000771 4.6024000 2
16956 16958 16960 16961 1 180.0000771 15.1670000 2
16956 16958 16960 16962 1 180.0000771 15.1670000 2
16959 16958 16960 16961 1 180.0000771 15.1670000 2
16959 16958 16960 16962 1 180.0000771 15.1670000 2
16956 16960 16958 16959 4 180.0000771 4.6024000 2
16953 16960 16962 16963 4 180.0000771 4.6024000 2
16958 16960 16962 16963 1 180.0000771 15.1670000 2
16961 16960 16962 16963 1 180.0000771 15.1670000 2
16953 16962 16960 16958 1 180.0000771 15.1670000 2
16953 16962 16960 16961 1 180.0000771 15.1670000 2
16958 16962 16960 16961 4 180.0000771 4.6024000 2
16966 16967 16968 16969 1 180.0000771 15.1670000 2
16966 16967 16968 16970 1 180.0000771 15.1670000 2
16969 16967 16968 16970 4 180.0000771 4.6024000 2
16966 16967 16976 16968 4 180.0000771 4.6024000 2
16966 16967 16976 16974 1 180.0000771 15.1670000 2
16966 16967 16976 16977 1 180.0000771 15.1670000 2
16968 16967 16976 16974 1 180.0000771 15.1670000 2
16968 16967 16976 16977 1 180.0000771 15.1670000 2
16969 16968 16967 16976 1 180.0000771 15.1670000 2
16970 16968 16967 16976 1 180.0000771 15.1670000 2
16967 16968 16970 16971 1 180.0000771 15.1670000 2
16967 16968 16970 16972 1 180.0000771 15.1670000 2
16969 16968 16970 16971 1 180.0000771 15.1670000 2
16969 16968 16970 16972 1 180.0000771 15.1670000 2
16968 16970 16972 16973 1 180.0000771 15.1670000 2
16968 16970 16972 16974 1 180.0000771 15.1670000 2
16971 16970 16972 16973 1 180.0000771 15.1670000 2
16971 16970 16972 16974 1 180.0000771 15.1670000 2
16968 16972 16970 16971 4 180.0000771 4.6024000 2
16970 16972 16974 16975 1 180.0000771 15.1670000 2
16970 16972 16974 16976 1 180.0000771 15.1670000 2
16973 16972 16974 16975 1 180.0000771 15.1670000 2
16973 16972 16974 16976 1 180.0000771 15.1670000 2
16970 16974 16972 16973 4 180.0000771 4.6024000 2
16967 16974 16976 16977 4 180.0000771 4.6024000 2
16972 16974 16976 16977 1 180.0000771 15.1670000 2
16975 16974 16976 16977 1 180.0000771 15.1670000 2
16967 16976 16974 16972 1 180.0000771 15.1670000 2
16967 16976 16974 16975 1 180.0000771 15.1670000 2
16972 16976 16974 16975 4 180.0000771 4.6024000 2
16980 16981 16982 16983 1 180.0000771 15.1670000 2
16980 16981 16982 16984 1 180.0000771 15.1670000 2
16983 16981 16982 16984 4 180.0000771 4.6024000 2
16980 16981 16990 16982 4 180.0000771 4.6024000 2
16980 16981 16990 16988 1 180.0000771 15.1670000 2
16980 16981 16990 16991 1 180.0000771 15.1670000 2
16982 16981 16990 16988 1 180.0000771 15.1670000 2
16982 16981 16990 16991 1 180.0000771 15.1670000 2
16983 16982 16981 16990 1 180.0000771 15.1670000 2
16984 16982 16981 16990 1 180.0000771 15.1670000 2
16981 16982 16984 16985 1 180.0000771 15.1670000 2
16981 16982 16984 16986 1 180.0000771 15.1670000 2
16983 16982 16984 16985 1 180.0000771 15.1670000 2
16983 16982 16984 16986 1 180.0000771 15.1670000 2
16982 16984 16986 16987 1 180.0000771 15.1670000 2
16982 16984 16986 16988 1 180.0000771 15.1670000 2
16985 16984 16986 16987 1 180.0000771 15.1670000 2
16985 16984 16986 16988 1 180.0000771 15.1670000 2
16982 16986 16984 16985 4 180.0000771 4.6024000 2
16984 16986 16988 16989 1 180.0000771 15.1670000 2
16984 16986 16988 16990 1 180.0000771 15.1670000 2
16987 16986 16988 16989 1 180.0000771 15.1670000 2
16987 16986 16988 16990 1 180.0000771 15.1670000 2
16984 16988 16986 16987 4 180.0000771 4.6024000 2
16981 16988 16990 16991 4 180.0000771 4.6024000 2
16986 16988 16990 16991 1 180.0000771 15.1670000 2
16989 16988 16990 16991 1 180.0000771 15.1670000 2
16981 16990 16988 16986 1 180.0000771 15.1670000 2
16981 16990 16988 16989 1 180.0000771 15.1670000 2
16986 16990 16988 16989 4 180.0000771 4.6024000 2
16994 16995 16996 16997 1 180.0000771 15.1670000 2
16994 16995 16996 16998 1 180.0000771 15.1670000 2
16997 16995 16996 16998 4 180.0000771 4.6024000 2
16994 16995 17004 16996 4 180.0000771 4.6024000 2
16994 16995 17004 17002 1 180.0000771 15.1670000 2
16994 16995 17004 17005 1 180.0000771 15.1670000 2
16996 16995 17004 17002 1 180.0000771 15.1670000 2
16996 16995 17004 17005 1 180.0000771 15.1670000 2
16997 16996 16995 17004 1 180.0000771 15.1670000 2
16998 16996 16995 17004 1 180.0000771 15.1670000 2
16995 16996 16998 16999 1 180.0000771 15.1670000 2
16995 16996 16998 17000 1 180.0000771 15.1670000 2
16997 16996 16998 16999 1 180.0000771 15.1670000 2
16997 16996 16998 17000 1 180.0000771 15.1670000 2
16996 16998 17000 17001 1 180.0000771 15.1670000 2
16996 16998 17000 17002 1 180.0000771 15.1670000 2
16999 16998 17000 17001 1 180.0000771 15.1670000 2
16999 16998 17000 17002 1 180.0000771 15.1670000 2
16996 17000 16998 16999 4 180.0000771 4.6024000 2
16998 17000 17002 17003 1 180.0000771 15.1670000 2
16998 17000 17002 17004 1 180.0000771 15.1670000 2
17001 17000 17002 17003 1 180.0000771 15.1670000 2
17001 17000 17002 17004 1 180.0000771 15.1670000 2
16998 17002 17000 17001 4 180.0000771 4.6024000 2
16995 17002 17004 17005 4 180.0000771 4.6024000 2
17000 17002 17004 17005 1 180.0000771 15.1670000 2
17003 17002 17004 17005 1 180.0000771 15.1670000 2
16995 17004 17002 17000 1 180.0000771 15.1670000 2
16995 17004 17002 17003 1 180.0000771 15.1670000 2
17000 17004 17002 17003 4 180.0000771 4.6024000 2
17008 17009 17010 17011 1 180.0000771 15.1670000 2
17008 17009 17010 17012 1 180.0000771 15.1670000 2
17011 17009 17010 17012 4 180.0000771 4.6024000 2
17008 17009 17018 17010 4 180.0000771 4.6024000 2
17008 17009 17018 17016 1 180.0000771 15.1670000 2
17008 17009 17018 17019 1 180.0000771 15.1670000 2
17010 17009 17018 17016 1 180.0000771 15.1670000 2
17010 17009 17018 17019 1 180.0000771 15.1670000 2
17011 17010 17009 17018 1 180.0000771 15.1670000 2
17012 17010 17009 17018 1 180.0000771 15.1670000 2
17009 17010 17012 17013 1 180.0000771 15.1670000 2
17009 17010 17012 17014 1 180.0000771 15.1670000 2
17011 17010 17012 17013 1 180.0000771 15.1670000 2
17011 17010 17012 17014 1 180.0000771 15.1670000 2
17010 17012 17014 17015 1 180.0000771 15.1670000 2
17010 17012 17014 17016 1 180.0000771 15.1670000 2
17013 17012 17014 17015 1 180.0000771 15.1670000 2
17013 17012 17014 17016 1 180.0000771 15.1670000 2
17010 17014 17012 17013 4 180.0000771 4.6024000 2
17012 17014 17016 17017 1 180.0000771 15.1670000 2
17012 17014 17016 17018 1 180.0000771 15.1670000 2
17015 17014 17016 17017 1 180.0000771 15.1670000 2
17015 17014 17016 17018 1 180.0000771 15.1670000 2
17012 17016 17014 17015 4 180.0000771 4.6024000 2
17009 17016 17018 17019 4 180.0000771 4.6024000 2
17014 17016 17018 17019 1 180.0000771 15.1670000 2
17017 17016 17018 17019 1 180.0000771 15.1670000 2
17009 17018 17016 17014 1 180.0000771 15.1670000 2
17009 17018 17016 17017 1 180.0000771 15.1670000 2
17014 17018 17016 17017 4 180.0000771 4.6024000 2
17022 17023 17024 17025 1 180.0000771 15.1670000 2
17022 17023 17024 17026 1 180.0000771 15.1670000 2
17025 17023 17024 17026 4 180.0000771 4.6024000 2
17022 17023 17032 17024 4 180.0000771 4.6024000 2
17022 17023 17032 17030 1 180.0000771 15.1670000 2
17022 17023 17032 17033 1 180.0000771 15.1670000 2
17024 17023 17032 17030 1 180.0000771 15.1670000 2
17024 17023 17032 17033 1 180.0000771 15.1670000 2
17025 17024 17023 17032 1 180.0000771 15.1670000 2
17026 17024 17023 17032 1 180.0000771 15.1670000 2
17023 17024 17026 17027 1 180.0000771 15.1670000 2
17023 17024 17026 17028 1 180.0000771 15.1670000 2
17025 17024 17026 17027 1 180.0000771 15.1670000 2
17025 17024 17026 17028 1 180.0000771 15.1670000 2
17024 17026 17028 17029 1 180.0000771 15.1670000 2
17024 17026 17028 17030 1 180.0000771 15.1670000 2
17027 17026 17028 17029 1 180.0000771 15.1670000 2
17027 17026 17028 17030 1 180.0000771 15.1670000 2
17024 17028 17026 17027 4 180.0000771 4.6024000 2
17026 17028 17030 17031 1 180.0000771 15.1670000 2
17026 17028 17030 17032 1 180.0000771 15.1670000 2
17029 17028 17030 17031 1 180.0000771 15.1670000 2
17029 17028 17030 17032 1 180.0000771 15.1670000 2
17026 17030 17028 17029 4 180.0000771 4.6024000 2
17023 17030 17032 17033 4 180.0000771 4.6024000 2
17028 17030 17032 17033 1 180.0000771 15.1670000 2
17031 17030 17032 17033 1 180.0000771 15.1670000 2
17023 17032 17030 17028 1 180.0000771 15.1670000 2
17023 17032 17030 17031 1 180.0000771 15.1670000 2
17028 17032 17030 17031 4 180.0000771 4.6024000 2
17036 17037 17038 17039 1 180.0000771 15.1670000 2
17036 17037 17038 17040 1 180.0000771 15.1670000 2
17039 17037 17038 17040 4 180.0000771 4.6024000 2
17036 17037 17046 17038 4 180.0000771 4.6024000 2
17036 17037 17046 17044 1 180.0000771 15.1670000 2
17036 17037 17046 17047 1 180.0000771 15.1670000 2
17038 17037 17046 17044 1 180.0000771 15.1670000 2
17038 17037 17046 17047 1 180.0000771 15.1670000 2
17039 17038 17037 17046 1 180.0000771 15.1670000 2
17040 17038 17037 17046 1 180.0000771 15.1670000 2
17037 17038 17040 17041 1 180.0000771 15.1670000 2
17037 17038 17040 17042 1 180.0000771 15.1670000 2
17039 17038 17040 17041 1 180.0000771 15.1670000 2
17039 17038 17040 17042 1 180.0000771 15.1670000 2
17038 17040 17042 17043 1 180.0000771 15.1670000 2
17038 17040 17042 17044 1 180.0000771 15.1670000 2
17041 17040 17042 17043 1 180.0000771 15.1670000 2
17041 17040 17042 17044 1 180.0000771 15.1670000 2
17038 17042 17040 17041 4 180.0000771 4.6024000 2
17040 17042 17044 17045 1 180.0000771 15.1670000 2
17040 17042 17044 17046 1 180.0000771 15.1670000 2
17043 17042 17044 17045 1 180.0000771 15.1670000 2
17043 17042 17044 17046 1 180.0000771 15.1670000 2
17040 17044 17042 17043 4 180.0000771 4.6024000 2
17037 17044 17046 17047 4 180.0000771 4.6024000 2
17042 17044 17046 17047 1 180.0000771 15.1670000 2
17045 17044 17046 17047 1 180.0000771 15.1670000 2
17037 17046 17044 17042 1 180.0000771 15.1670000 2
17037 17046 17044 17045 1 180.0000771 15.1670000 2
17042 17046 17044 17045 4 180.0000771 4.6024000 2
17050 17051 17052 17053 1 180.0000771 15.1670000 2
17050 17051 17052 17054 1 180.0000771 15.1670000 2
17053 17051 17052 17054 4 180.0000771 4.6024000 2
17050 17051 17060 17052 4 180.0000771 4.6024000 2
17050 17051 17060 17058 1 180.0000771 15.1670000 2
17050 17051 17060 17061 1 180.0000771 15.1670000 2
17052 17051 17060 17058 1 180.0000771 15.1670000 2
17052 17051 17060 17061 1 180.0000771 15.1670000 2
17053 17052 17051 17060 1 180.0000771 15.1670000 2
17054 17052 17051 17060 1 180.0000771 15.1670000 2
17051 17052 17054 17055 1 180.0000771 15.1670000 2
17051 17052 17054 17056 1 180.0000771 15.1670000 2
17053 17052 17054 17055 1 180.0000771 15.1670000 2
17053 17052 17054 17056 1 180.0000771 15.1670000 2
17052 17054 17056 17057 1 180.0000771 15.1670000 2
17052 17054 17056 17058 1 180.0000771 15.1670000 2
17055 17054 17056 17057 1 180.0000771 15.1670000 2
17055 17054 17056 17058 1 180.0000771 15.1670000 2
17052 17056 17054 17055 4 180.0000771 4.6024000 2
17054 17056 17058 17059 1 180.0000771 15.1670000 2
17054 17056 17058 17060 1 180.0000771 15.1670000 2
17057 17056 17058 17059 1 180.0000771 15.1670000 2
17057 17056 17058 17060 1 180.0000771 15.1670000 2
17054 17058 17056 17057 4 180.0000771 4.6024000 2
17051 17058 17060 17061 4 180.0000771 4.6024000 2
17056 17058 17060 17061 1 180.0000771 15.1670000 2
17059 17058 17060 17061 1 180.0000771 15.1670000 2
17051 17060 17058 17056 1 180.0000771 15.1670000 2
17051 17060 17058 17059 1 180.0000771 15.1670000 2
17056 17060 17058 17059 4 180.0000771 4.6024000 2
17064 17065 17066 17067 1 180.0000771 15.1670000 2
17064 17065 17066 17068 1 180.0000771 15.1670000 2
17067 17065 17066 17068 4 180.0000771 4.6024000 2
17064 17065 17074 17066 4 180.0000771 4.6024000 2
17064 17065 17074 17072 1 180.0000771 15.1670000 2
17064 17065 17074 17075 1 180.0000771 15.1670000 2
17066 17065 17074 17072 1 180.0000771 15.1670000 2
17066 17065 17074 17075 1 180.0000771 15.1670000 2
17067 17066 17065 17074 1 180.0000771 15.1670000 2
17068 17066 17065 17074 1 180.0000771 15.1670000 2
17065 17066 17068 17069 1 180.0000771 15.1670000 2
17065 17066 17068 17070 1 180.0000771 15.1670000 2
17067 17066 17068 17069 1 180.0000771 15.1670000 2
17067 17066 17068 17070 1 180.0000771 15.1670000 2
17066 17068 17070 17071 1 180.0000771 15.1670000 2
17066 17068 17070 17072 1 180.0000771 15.1670000 2
17069 17068 17070 17071 1 180.0000771 15.1670000 2
17069 17068 17070 17072 1 180.0000771 15.1670000 2
17066 17070 17068 17069 4 180.0000771 4.6024000 2
17068 17070 17072 17073 1 180.0000771 15.1670000 2
17068 17070 17072 17074 1 180.0000771 15.1670000 2
17071 17070 17072 17073 1 180.0000771 15.1670000 2
17071 17070 17072 17074 1 180.0000771 15.1670000 2
17068 17072 17070 17071 4 180.0000771 4.6024000 2
17065 17072 17074 17075 4 180.0000771 4.6024000 2
17070 17072 17074 17075 1 180.0000771 15.1670000 2
17073 17072 17074 17075 1 180.0000771 15.1670000 2
17065 17074 17072 17070 1 180.0000771 15.1670000 2
17065 17074 17072 17073 1 180.0000771 15.1670000 2
17070 17074 17072 17073 4 180.0000771 4.6024000 2
17078 17079 17080 17081 1 180.0000771 15.1670000 2
17078 17079 17080 17082 1 180.0000771 15.1670000 2
17081 17079 17080 17082 4 180.0000771 4.6024000 2
17078 17079 17088 17080 4 180.0000771 4.6024000 2
17078 17079 17088 17086 1 180.0000771 15.1670000 2
17078 17079 17088 17089 1 180.0000771 15.1670000 2
17080 17079 17088 17086 1 180.0000771 15.1670000 2
17080 17079 17088 17089 1 180.0000771 15.1670000 2
17081 17080 17079 17088 1 180.0000771 15.1670000 2
17082 17080 17079 17088 1 180.0000771 15.1670000 2
17079 17080 17082 17083 1 180.0000771 15.1670000 2
17079 17080 17082 17084 1 180.0000771 15.1670000 2
17081 17080 17082 17083 1 180.0000771 15.1670000 2
17081 17080 17082 17084 1 180.0000771 15.1670000 2
17080 17082 17084 17085 1 180.0000771 15.1670000 2
17080 17082 17084 17086 1 180.0000771 15.1670000 2
17083 17082 17084 17085 1 180.0000771 15.1670000 2
17083 17082 17084 17086 1 180.0000771 15.1670000 2
17080 17084 17082 17083 4 180.0000771 4.6024000 2
17082 17084 17086 17087 1 180.0000771 15.1670000 2
17082 17084 17086 17088 1 180.0000771 15.1670000 2
17085 17084 17086 17087 1 180.0000771 15.1670000 2
17085 17084 17086 17088 1 180.0000771 15.1670000 2
17082 17086 17084 17085 4 180.0000771 4.6024000 2
17079 17086 17088 17089 4 180.0000771 4.6024000 2
17084 17086 17088 17089 1 180.0000771 15.1670000 2
17087 17086 17088 17089 1 180.0000771 15.1670000 2
17079 17088 17086 17084 1 180.0000771 15.1670000 2
17079 17088 17086 17087 1 180.0000771 15.1670000 2
17084 17088 17086 17087 4 180.0000771 4.6024000 2
17092 17093 17094 17095 1 180.0000771 15.1670000 2
17092 17093 17094 17096 1 180.0000771 15.1670000 2
17095 17093 17094 17096 4 180.0000771 4.6024000 2
17092 17093 17102 17094 4 180.0000771 4.6024000 2
17092 17093 17102 17100 1 180.0000771 15.1670000 2
17092 17093 17102 17103 1 180.0000771 15.1670000 2
17094 17093 17102 17100 1 180.0000771 15.1670000 2
17094 17093 17102 17103 1 180.0000771 15.1670000 2
17095 17094 17093 17102 1 180.0000771 15.1670000 2
17096 17094 17093 17102 1 180.0000771 15.1670000 2
17093 17094 17096 17097 1 180.0000771 15.1670000 2
17093 17094 17096 17098 1 180.0000771 15.1670000 2
17095 17094 17096 17097 1 180.0000771 15.1670000 2
17095 17094 17096 17098 1 180.0000771 15.1670000 2
17094 17096 17098 17099 1 180.0000771 15.1670000 2
17094 17096 17098 17100 1 180.0000771 15.1670000 2
17097 17096 17098 17099 1 180.0000771 15.1670000 2
17097 17096 17098 17100 1 180.0000771 15.1670000 2
17094 17098 17096 17097 4 180.0000771 4.6024000 2
17096 17098 17100 17101 1 180.0000771 15.1670000 2
17096 17098 17100 17102 1 180.0000771 15.1670000 2
17099 17098 17100 17101 1 180.0000771 15.1670000 2
17099 17098 17100 17102 1 180.0000771 15.1670000 2
17096 17100 17098 17099 4 180.0000771 4.6024000 2
17093 17100 17102 17103 4 180.0000771 4.6024000 2
17098 17100 17102 17103 1 180.0000771 15.1670000 2
17101 17100 17102 17103 1 180.0000771 15.1670000 2
17093 17102 17100 17098 1 180.0000771 15.1670000 2
17093 17102 17100 17101 1 180.0000771 15.1670000 2
17098 17102 17100 17101 4 180.0000771 4.6024000 2
17106 17107 17108 17109 1 180.0000771 15.1670000 2
17106 17107 17108 17110 1 180.0000771 15.1670000 2
17109 17107 17108 17110 4 180.0000771 4.6024000 2
17106 17107 17116 17108 4 180.0000771 4.6024000 2
17106 17107 17116 17114 1 180.0000771 15.1670000 2
17106 17107 17116 17117 1 180.0000771 15.1670000 2
17108 17107 17116 17114 1 180.0000771 15.1670000 2
17108 17107 17116 17117 1 180.0000771 15.1670000 2
17109 17108 17107 17116 1 180.0000771 15.1670000 2
17110 17108 17107 17116 1 180.0000771 15.1670000 2
17107 17108 17110 17111 1 180.0000771 15.1670000 2
17107 17108 17110 17112 1 180.0000771 15.1670000 2
17109 17108 17110 17111 1 180.0000771 15.1670000 2
17109 17108 17110 17112 1 180.0000771 15.1670000 2
17108 17110 17112 17113 1 180.0000771 15.1670000 2
17108 17110 17112 17114 1 180.0000771 15.1670000 2
17111 17110 17112 17113 1 180.0000771 15.1670000 2
17111 17110 17112 17114 1 180.0000771 15.1670000 2
17108 17112 17110 17111 4 180.0000771 4.6024000 2
17110 17112 17114 17115 1 180.0000771 15.1670000 2
17110 17112 17114 17116 1 180.0000771 15.1670000 2
17113 17112 17114 17115 1 180.0000771 15.1670000 2
17113 17112 17114 17116 1 180.0000771 15.1670000 2
17110 17114 17112 17113 4 180.0000771 4.6024000 2
17107 17114 17116 17117 4 180.0000771 4.6024000 2
17112 17114 17116 17117 1 180.0000771 15.1670000 2
17115 17114 17116 17117 1 180.0000771 15.1670000 2
17107 17116 17114 17112 1 180.0000771 15.1670000 2
17107 17116 17114 17115 1 180.0000771 15.1670000 2
17112 17116 17114 17115 4 180.0000771 4.6024000 2
17120 17121 17122 17123 1 180.0000771 15.1670000 2
17120 17121 17122 17124 1 180.0000771 15.1670000 2
17123 17121 17122 17124 4 180.0000771 4.6024000 2
17120 17121 17130 17122 4 180.0000771 4.6024000 2
17120 17121 17130 17128 1 180.0000771 15.1670000 2
17120 17121 17130 17131 1 180.0000771 15.1670000 2
17122 17121 17130 17128 1 180.0000771 15.1670000 2
17122 17121 17130 17131 1 180.0000771 15.1670000 2
17123 17122 17121 17130 1 180.0000771 15.1670000 2
17124 17122 17121 17130 1 180.0000771 15.1670000 2
17121 17122 17124 17125 1 180.0000771 15.1670000 2
17121 17122 17124 17126 1 180.0000771 15.1670000 2
17123 17122 17124 17125 1 180.0000771 15.1670000 2
17123 17122 17124 17126 1 180.0000771 15.1670000 2
17122 17124 17126 17127 1 180.0000771 15.1670000 2
17122 17124 17126 17128 1 180.0000771 15.1670000 2
17125 17124 17126 17127 1 180.0000771 15.1670000 2
17125 17124 17126 17128 1 180.0000771 15.1670000 2
17122 17126 17124 17125 4 180.0000771 4.6024000 2
17124 17126 17128 17129 1 180.0000771 15.1670000 2
17124 17126 17128 17130 1 180.0000771 15.1670000 2
17127 17126 17128 17129 1 180.0000771 15.1670000 2
17127 17126 17128 17130 1 180.0000771 15.1670000 2
17124 17128 17126 17127 4 180.0000771 4.6024000 2
17121 17128 17130 17131 4 180.0000771 4.6024000 2
17126 17128 17130 17131 1 180.0000771 15.1670000 2
17129 17128 17130 17131 1 180.0000771 15.1670000 2
17121 17130 17128 17126 1 180.0000771 15.1670000 2
17121 17130 17128 17129 1 180.0000771 15.1670000 2
17126 17130 17128 17129 4 180.0000771 4.6024000 2
17134 17135 17136 17137 1 180.0000771 15.1670000 2
17134 17135 17136 17138 1 180.0000771 15.1670000 2
17137 17135 17136 17138 4 180.0000771 4.6024000 2
17134 17135 17144 17136 4 180.0000771 4.6024000 2
17134 17135 17144 17142 1 180.0000771 15.1670000 2
17134 17135 17144 17145 1 180.0000771 15.1670000 2
17136 17135 17144 17142 1 180.0000771 15.1670000 2
17136 17135 17144 17145 1 180.0000771 15.1670000 2
17137 17136 17135 17144 1 180.0000771 15.1670000 2
17138 17136 17135 17144 1 180.0000771 15.1670000 2
17135 17136 17138 17139 1 180.0000771 15.1670000 2
17135 17136 17138 17140 1 180.0000771 15.1670000 2
17137 17136 17138 17139 1 180.0000771 15.1670000 2
17137 17136 17138 17140 1 180.0000771 15.1670000 2
17136 17138 17140 17141 1 180.0000771 15.1670000 2
17136 17138 17140 17142 1 180.0000771 15.1670000 2
17139 17138 17140 17141 1 180.0000771 15.1670000 2
17139 17138 17140 17142 1 180.0000771 15.1670000 2
17136 17140 17138 17139 4 180.0000771 4.6024000 2
17138 17140 17142 17143 1 180.0000771 15.1670000 2
17138 17140 17142 17144 1 180.0000771 15.1670000 2
17141 17140 17142 17143 1 180.0000771 15.1670000 2
17141 17140 17142 17144 1 180.0000771 15.1670000 2
17138 17142 17140 17141 4 180.0000771 4.6024000 2
17135 17142 17144 17145 4 180.0000771 4.6024000 2
17140 17142 17144 17145 1 180.0000771 15.1670000 2
17143 17142 17144 17145 1 180.0000771 15.1670000 2
17135 17144 17142 17140 1 180.0000771 15.1670000 2
17135 17144 17142 17143 1 180.0000771 15.1670000 2
17140 17144 17142 17143 4 180.0000771 4.6024000 2
17148 17149 17150 17151 1 180.0000771 15.1670000 2
17148 17149 17150 17152 1 180.0000771 15.1670000 2
17151 17149 17150 17152 4 180.0000771 4.6024000 2
17148 17149 17158 17150 4 180.0000771 4.6024000 2
17148 17149 17158 17156 1 180.0000771 15.1670000 2
17148 17149 17158 17159 1 180.0000771 15.1670000 2
17150 17149 17158 17156 1 180.0000771 15.1670000 2
17150 17149 17158 17159 1 180.0000771 15.1670000 2
17151 17150 17149 17158 1 180.0000771 15.1670000 2
17152 17150 17149 17158 1 180.0000771 15.1670000 2
17149 17150 17152 17153 1 180.0000771 15.1670000 2
17149 17150 17152 17154 1 180.0000771 15.1670000 2
17151 17150 17152 17153 1 180.0000771 15.1670000 2
17151 17150 17152 17154 1 180.0000771 15.1670000 2
17150 17152 17154 17155 1 180.0000771 15.1670000 2
17150 17152 17154 17156 1 180.0000771 15.1670000 2
17153 17152 17154 17155 1 180.0000771 15.1670000 2
17153 17152 17154 17156 1 180.0000771 15.1670000 2
17150 17154 17152 17153 4 180.0000771 4.6024000 2
17152 17154 17156 17157 1 180.0000771 15.1670000 2
17152 17154 17156 17158 1 180.0000771 15.1670000 2
17155 17154 17156 17157 1 180.0000771 15.1670000 2
17155 17154 17156 17158 1 180.0000771 15.1670000 2
17152 17156 17154 17155 4 180.0000771 4.6024000 2
17149 17156 17158 17159 4 180.0000771 4.6024000 2
17154 17156 17158 17159 1 180.0000771 15.1670000 2
17157 17156 17158 17159 1 180.0000771 15.1670000 2
17149 17158 17156 17154 1 180.0000771 15.1670000 2
17149 17158 17156 17157 1 180.0000771 15.1670000 2
17154 17158 17156 17157 4 180.0000771 4.6024000 2
17162 17163 17164 17165 1 180.0000771 15.1670000 2
17162 17163 17164 17166 1 180.0000771 15.1670000 2
17165 17163 17164 17166 4 180.0000771 4.6024000 2
17162 17163 17172 17164 4 180.0000771 4.6024000 2
17162 17163 17172 17170 1 180.0000771 15.1670000 2
17162 17163 17172 17173 1 180.0000771 15.1670000 2
17164 17163 17172 17170 1 180.0000771 15.1670000 2
17164 17163 17172 17173 1 180.0000771 15.1670000 2
17165 17164 17163 17172 1 180.0000771 15.1670000 2
17166 17164 17163 17172 1 180.0000771 15.1670000 2
17163 17164 17166 17167 1 180.0000771 15.1670000 2
17163 17164 17166 17168 1 180.0000771 15.1670000 2
17165 17164 17166 17167 1 180.0000771 15.1670000 2
17165 17164 17166 17168 1 180.0000771 15.1670000 2
17164 17166 17168 17169 1 180.0000771 15.1670000 2
17164 17166 17168 17170 1 180.0000771 15.1670000 2
17167 17166 17168 17169 1 180.0000771 15.1670000 2
17167 17166 17168 17170 1 180.0000771 15.1670000 2
17164 17168 17166 17167 4 180.0000771 4.6024000 2
17166 17168 17170 17171 1 180.0000771 15.1670000 2
17166 17168 17170 17172 1 180.0000771 15.1670000 2
17169 17168 17170 17171 1 180.0000771 15.1670000 2
17169 17168 17170 17172 1 180.0000771 15.1670000 2
17166 17170 17168 17169 4 180.0000771 4.6024000 2
17163 17170 17172 17173 4 180.0000771 4.6024000 2
17168 17170 17172 17173 1 180.0000771 15.1670000 2
17171 17170 17172 17173 1 180.0000771 15.1670000 2
17163 17172 17170 17168 1 180.0000771 15.1670000 2
17163 17172 17170 17171 1 180.0000771 15.1670000 2
17168 17172 17170 17171 4 180.0000771 4.6024000 2
17176 17177 17178 17179 1 180.0000771 15.1670000 2
17176 17177 17178 17180 1 180.0000771 15.1670000 2
17179 17177 17178 17180 4 180.0000771 4.6024000 2
17176 17177 17186 17178 4 180.0000771 4.6024000 2
17176 17177 17186 17184 1 180.0000771 15.1670000 2
17176 17177 17186 17187 1 180.0000771 15.1670000 2
17178 17177 17186 17184 1 180.0000771 15.1670000 2
17178 17177 17186 17187 1 180.0000771 15.1670000 2
17179 17178 17177 17186 1 180.0000771 15.1670000 2
17180 17178 17177 17186 1 180.0000771 15.1670000 2
17177 17178 17180 17181 1 180.0000771 15.1670000 2
17177 17178 17180 17182 1 180.0000771 15.1670000 2
17179 17178 17180 17181 1 180.0000771 15.1670000 2
17179 17178 17180 17182 1 180.0000771 15.1670000 2
17178 17180 17182 17183 1 180.0000771 15.1670000 2
17178 17180 17182 17184 1 180.0000771 15.1670000 2
17181 17180 17182 17183 1 180.0000771 15.1670000 2
17181 17180 17182 17184 1 180.0000771 15.1670000 2
17178 17182 17180 17181 4 180.0000771 4.6024000 2
17180 17182 17184 17185 1 180.0000771 15.1670000 2
17180 17182 17184 17186 1 180.0000771 15.1670000 2
17183 17182 17184 17185 1 180.0000771 15.1670000 2
17183 17182 17184 17186 1 180.0000771 15.1670000 2
17180 17184 17182 17183 4 180.0000771 4.6024000 2
17177 17184 17186 17187 4 180.0000771 4.6024000 2
17182 17184 17186 17187 1 180.0000771 15.1670000 2
17185 17184 17186 17187 1 180.0000771 15.1670000 2
17177 17186 17184 17182 1 180.0000771 15.1670000 2
17177 17186 17184 17185 1 180.0000771 15.1670000 2
17182 17186 17184 17185 4 180.0000771 4.6024000 2
17190 17191 17192 17193 1 180.0000771 15.1670000 2
17190 17191 17192 17194 1 180.0000771 15.1670000 2
17193 17191 17192 17194 4 180.0000771 4.6024000 2
17190 17191 17200 17192 4 180.0000771 4.6024000 2
17190 17191 17200 17198 1 180.0000771 15.1670000 2
17190 17191 17200 17201 1 180.0000771 15.1670000 2
17192 17191 17200 17198 1 180.0000771 15.1670000 2
17192 17191 17200 17201 1 180.0000771 15.1670000 2
17193 17192 17191 17200 1 180.0000771 15.1670000 2
17194 17192 17191 17200 1 180.0000771 15.1670000 2
17191 17192 17194 17195 1 180.0000771 15.1670000 2
17191 17192 17194 17196 1 180.0000771 15.1670000 2
17193 17192 17194 17195 1 180.0000771 15.1670000 2
17193 17192 17194 17196 1 180.0000771 15.1670000 2
17192 17194 17196 17197 1 180.0000771 15.1670000 2
17192 17194 17196 17198 1 180.0000771 15.1670000 2
17195 17194 17196 17197 1 180.0000771 15.1670000 2
17195 17194 17196 17198 1 180.0000771 15.1670000 2
17192 17196 17194 17195 4 180.0000771 4.6024000 2
17194 17196 17198 17199 1 180.0000771 15.1670000 2
17194 17196 17198 17200 1 180.0000771 15.1670000 2
17197 17196 17198 17199 1 180.0000771 15.1670000 2
17197 17196 17198 17200 1 180.0000771 15.1670000 2
17194 17198 17196 17197 4 180.0000771 4.6024000 2
17191 17198 17200 17201 4 180.0000771 4.6024000 2
17196 17198 17200 17201 1 180.0000771 15.1670000 2
17199 17198 17200 17201 1 180.0000771 15.1670000 2
17191 17200 17198 17196 1 180.0000771 15.1670000 2
17191 17200 17198 17199 1 180.0000771 15.1670000 2
17196 17200 17198 17199 4 180.0000771 4.6024000 2
17204 17205 17206 17207 1 180.0000771 15.1670000 2
17204 17205 17206 17208 1 180.0000771 15.1670000 2
17207 17205 17206 17208 4 180.0000771 4.6024000 2
17204 17205 17214 17206 4 180.0000771 4.6024000 2
17204 17205 17214 17212 1 180.0000771 15.1670000 2
17204 17205 17214 17215 1 180.0000771 15.1670000 2
17206 17205 17214 17212 1 180.0000771 15.1670000 2
17206 17205 17214 17215 1 180.0000771 15.1670000 2
17207 17206 17205 17214 1 180.0000771 15.1670000 2
17208 17206 17205 17214 1 180.0000771 15.1670000 2
17205 17206 17208 17209 1 180.0000771 15.1670000 2
17205 17206 17208 17210 1 180.0000771 15.1670000 2
17207 17206 17208 17209 1 180.0000771 15.1670000 2
17207 17206 17208 17210 1 180.0000771 15.1670000 2
17206 17208 17210 17211 1 180.0000771 15.1670000 2
17206 17208 17210 17212 1 180.0000771 15.1670000 2
17209 17208 17210 17211 1 180.0000771 15.1670000 2
17209 17208 17210 17212 1 180.0000771 15.1670000 2
17206 17210 17208 17209 4 180.0000771 4.6024000 2
17208 17210 17212 17213 1 180.0000771 15.1670000 2
17208 17210 17212 17214 1 180.0000771 15.1670000 2
17211 17210 17212 17213 1 180.0000771 15.1670000 2
17211 17210 17212 17214 1 180.0000771 15.1670000 2
17208 17212 17210 17211 4 180.0000771 4.6024000 2
17205 17212 17214 17215 4 180.0000771 4.6024000 2
17210 17212 17214 17215 1 180.0000771 15.1670000 2
17213 17212 17214 17215 1 180.0000771 15.1670000 2
17205 17214 17212 17210 1 180.0000771 15.1670000 2
17205 17214 17212 17213 1 180.0000771 15.1670000 2
17210 17214 17212 17213 4 180.0000771 4.6024000 2
17218 17219 17220 17221 1 180.0000771 15.1670000 2
17218 17219 17220 17222 1 180.0000771 15.1670000 2
17221 17219 17220 17222 4 180.0000771 4.6024000 2
17218 17219 17228 17220 4 180.0000771 4.6024000 2
17218 17219 17228 17226 1 180.0000771 15.1670000 2
17218 17219 17228 17229 1 180.0000771 15.1670000 2
17220 17219 17228 17226 1 180.0000771 15.1670000 2
17220 17219 17228 17229 1 180.0000771 15.1670000 2
17221 17220 17219 17228 1 180.0000771 15.1670000 2
17222 17220 17219 17228 1 180.0000771 15.1670000 2
17219 17220 17222 17223 1 180.0000771 15.1670000 2
17219 17220 17222 17224 1 180.0000771 15.1670000 2
17221 17220 17222 17223 1 180.0000771 15.1670000 2
17221 17220 17222 17224 1 180.0000771 15.1670000 2
17220 17222 17224 17225 1 180.0000771 15.1670000 2
17220 17222 17224 17226 1 180.0000771 15.1670000 2
17223 17222 17224 17225 1 180.0000771 15.1670000 2
17223 17222 17224 17226 1 180.0000771 15.1670000 2
17220 17224 17222 17223 4 180.0000771 4.6024000 2
17222 17224 17226 17227 1 180.0000771 15.1670000 2
17222 17224 17226 17228 1 180.0000771 15.1670000 2
17225 17224 17226 17227 1 180.0000771 15.1670000 2
17225 17224 17226 17228 1 180.0000771 15.1670000 2
17222 17226 17224 17225 4 180.0000771 4.6024000 2
17219 17226 17228 17229 4 180.0000771 4.6024000 2
17224 17226 17228 17229 1 180.0000771 15.1670000 2
17227 17226 17228 17229 1 180.0000771 15.1670000 2
17219 17228 17226 17224 1 180.0000771 15.1670000 2
17219 17228 17226 17227 1 180.0000771 15.1670000 2
17224 17228 17226 17227 4 180.0000771 4.6024000 2
17232 17233 17234 17235 1 180.0000771 15.1670000 2
17232 17233 17234 17236 1 180.0000771 15.1670000 2
17235 17233 17234 17236 4 180.0000771 4.6024000 2
17232 17233 17242 17234 4 180.0000771 4.6024000 2
17232 17233 17242 17240 1 180.0000771 15.1670000 2
17232 17233 17242 17243 1 180.0000771 15.1670000 2
17234 17233 17242 17240 1 180.0000771 15.1670000 2
17234 17233 17242 17243 1 180.0000771 15.1670000 2
17235 17234 17233 17242 1 180.0000771 15.1670000 2
17236 17234 17233 17242 1 180.0000771 15.1670000 2
17233 17234 17236 17237 1 180.0000771 15.1670000 2
17233 17234 17236 17238 1 180.0000771 15.1670000 2
17235 17234 17236 17237 1 180.0000771 15.1670000 2
17235 17234 17236 17238 1 180.0000771 15.1670000 2
17234 17236 17238 17239 1 180.0000771 15.1670000 2
17234 17236 17238 17240 1 180.0000771 15.1670000 2
17237 17236 17238 17239 1 180.0000771 15.1670000 2
17237 17236 17238 17240 1 180.0000771 15.1670000 2
17234 17238 17236 17237 4 180.0000771 4.6024000 2
17236 17238 17240 17241 1 180.0000771 15.1670000 2
17236 17238 17240 17242 1 180.0000771 15.1670000 2
17239 17238 17240 17241 1 180.0000771 15.1670000 2
17239 17238 17240 17242 1 180.0000771 15.1670000 2
17236 17240 17238 17239 4 180.0000771 4.6024000 2
17233 17240 17242 17243 4 180.0000771 4.6024000 2
17238 17240 17242 17243 1 180.0000771 15.1670000 2
17241 17240 17242 17243 1 180.0000771 15.1670000 2
17233 17242 17240 17238 1 180.0000771 15.1670000 2
17233 17242 17240 17241 1 180.0000771 15.1670000 2
17238 17242 17240 17241 4 180.0000771 4.6024000 2
17246 17247 17248 17249 1 180.0000771 15.1670000 2
17246 17247 17248 17250 1 180.0000771 15.1670000 2
17249 17247 17248 17250 4 180.0000771 4.6024000 2
17246 17247 17256 17248 4 180.0000771 4.6024000 2
17246 17247 17256 17254 1 180.0000771 15.1670000 2
17246 17247 17256 17257 1 180.0000771 15.1670000 2
17248 17247 17256 17254 1 180.0000771 15.1670000 2
17248 17247 17256 17257 1 180.0000771 15.1670000 2
17249 17248 17247 17256 1 180.0000771 15.1670000 2
17250 17248 17247 17256 1 180.0000771 15.1670000 2
17247 17248 17250 17251 1 180.0000771 15.1670000 2
17247 17248 17250 17252 1 180.0000771 15.1670000 2
17249 17248 17250 17251 1 180.0000771 15.1670000 2
17249 17248 17250 17252 1 180.0000771 15.1670000 2
17248 17250 17252 17253 1 180.0000771 15.1670000 2
17248 17250 17252 17254 1 180.0000771 15.1670000 2
17251 17250 17252 17253 1 180.0000771 15.1670000 2
17251 17250 17252 17254 1 180.0000771 15.1670000 2
17248 17252 17250 17251 4 180.0000771 4.6024000 2
17250 17252 17254 17255 1 180.0000771 15.1670000 2
17250 17252 17254 17256 1 180.0000771 15.1670000 2
17253 17252 17254 17255 1 180.0000771 15.1670000 2
17253 17252 17254 17256 1 180.0000771 15.1670000 2
17250 17254 17252 17253 4 180.0000771 4.6024000 2
17247 17254 17256 17257 4 180.0000771 4.6024000 2
17252 17254 17256 17257 1 180.0000771 15.1670000 2
17255 17254 17256 17257 1 180.0000771 15.1670000 2
17247 17256 17254 17252 1 180.0000771 15.1670000 2
17247 17256 17254 17255 1 180.0000771 15.1670000 2
17252 17256 17254 17255 4 180.0000771 4.6024000 2
17260 17261 17262 17263 1 180.0000771 15.1670000 2
17260 17261 17262 17264 1 180.0000771 15.1670000 2
17263 17261 17262 17264 4 180.0000771 4.6024000 2
17260 17261 17270 17262 4 180.0000771 4.6024000 2
17260 17261 17270 17268 1 180.0000771 15.1670000 2
17260 17261 17270 17271 1 180.0000771 15.1670000 2
17262 17261 17270 17268 1 180.0000771 15.1670000 2
17262 17261 17270 17271 1 180.0000771 15.1670000 2
17263 17262 17261 17270 1 180.0000771 15.1670000 2
17264 17262 17261 17270 1 180.0000771 15.1670000 2
17261 17262 17264 17265 1 180.0000771 15.1670000 2
17261 17262 17264 17266 1 180.0000771 15.1670000 2
17263 17262 17264 17265 1 180.0000771 15.1670000 2
17263 17262 17264 17266 1 180.0000771 15.1670000 2
17262 17264 17266 17267 1 180.0000771 15.1670000 2
17262 17264 17266 17268 1 180.0000771 15.1670000 2
17265 17264 17266 17267 1 180.0000771 15.1670000 2
17265 17264 17266 17268 1 180.0000771 15.1670000 2
17262 17266 17264 17265 4 180.0000771 4.6024000 2
17264 17266 17268 17269 1 180.0000771 15.1670000 2
17264 17266 17268 17270 1 180.0000771 15.1670000 2
17267 17266 17268 17269 1 180.0000771 15.1670000 2
17267 17266 17268 17270 1 180.0000771 15.1670000 2
17264 17268 17266 17267 4 180.0000771 4.6024000 2
17261 17268 17270 17271 4 180.0000771 4.6024000 2
17266 17268 17270 17271 1 180.0000771 15.1670000 2
17269 17268 17270 17271 1 180.0000771 15.1670000 2
17261 17270 17268 17266 1 180.0000771 15.1670000 2
17261 17270 17268 17269 1 180.0000771 15.1670000 2
17266 17270 17268 17269 4 180.0000771 4.6024000 2
17274 17275 17276 17277 1 180.0000771 15.1670000 2
17274 17275 17276 17278 1 180.0000771 15.1670000 2
17277 17275 17276 17278 4 180.0000771 4.6024000 2
17274 17275 17284 17276 4 180.0000771 4.6024000 2
17274 17275 17284 17282 1 180.0000771 15.1670000 2
17274 17275 17284 17285 1 180.0000771 15.1670000 2
17276 17275 17284 17282 1 180.0000771 15.1670000 2
17276 17275 17284 17285 1 180.0000771 15.1670000 2
17277 17276 17275 17284 1 180.0000771 15.1670000 2
17278 17276 17275 17284 1 180.0000771 15.1670000 2
17275 17276 17278 17279 1 180.0000771 15.1670000 2
17275 17276 17278 17280 1 180.0000771 15.1670000 2
17277 17276 17278 17279 1 180.0000771 15.1670000 2
17277 17276 17278 17280 1 180.0000771 15.1670000 2
17276 17278 17280 17281 1 180.0000771 15.1670000 2
17276 17278 17280 17282 1 180.0000771 15.1670000 2
17279 17278 17280 17281 1 180.0000771 15.1670000 2
17279 17278 17280 17282 1 180.0000771 15.1670000 2
17276 17280 17278 17279 4 180.0000771 4.6024000 2
17278 17280 17282 17283 1 180.0000771 15.1670000 2
17278 17280 17282 17284 1 180.0000771 15.1670000 2
17281 17280 17282 17283 1 180.0000771 15.1670000 2
17281 17280 17282 17284 1 180.0000771 15.1670000 2
17278 17282 17280 17281 4 180.0000771 4.6024000 2
17275 17282 17284 17285 4 180.0000771 4.6024000 2
17280 17282 17284 17285 1 180.0000771 15.1670000 2
17283 17282 17284 17285 1 180.0000771 15.1670000 2
17275 17284 17282 17280 1 180.0000771 15.1670000 2
17275 17284 17282 17283 1 180.0000771 15.1670000 2
17280 17284 17282 17283 4 180.0000771 4.6024000 2
17288 17289 17290 17291 1 180.0000771 15.1670000 2
17288 17289 17290 17292 1 180.0000771 15.1670000 2
17291 17289 17290 17292 4 180.0000771 4.6024000 2
17288 17289 17298 17290 4 180.0000771 4.6024000 2
17288 17289 17298 17296 1 180.0000771 15.1670000 2
17288 17289 17298 17299 1 180.0000771 15.1670000 2
17290 17289 17298 17296 1 180.0000771 15.1670000 2
17290 17289 17298 17299 1 180.0000771 15.1670000 2
17291 17290 17289 17298 1 180.0000771 15.1670000 2
17292 17290 17289 17298 1 180.0000771 15.1670000 2
17289 17290 17292 17293 1 180.0000771 15.1670000 2
17289 17290 17292 17294 1 180.0000771 15.1670000 2
17291 17290 17292 17293 1 180.0000771 15.1670000 2
17291 17290 17292 17294 1 180.0000771 15.1670000 2
17290 17292 17294 17295 1 180.0000771 15.1670000 2
17290 17292 17294 17296 1 180.0000771 15.1670000 2
17293 17292 17294 17295 1 180.0000771 15.1670000 2
17293 17292 17294 17296 1 180.0000771 15.1670000 2
17290 17294 17292 17293 4 180.0000771 4.6024000 2
17292 17294 17296 17297 1 180.0000771 15.1670000 2
17292 17294 17296 17298 1 180.0000771 15.1670000 2
17295 17294 17296 17297 1 180.0000771 15.1670000 2
17295 17294 17296 17298 1 180.0000771 15.1670000 2
17292 17296 17294 17295 4 180.0000771 4.6024000 2
17289 17296 17298 17299 4 180.0000771 4.6024000 2
17294 17296 17298 17299 1 180.0000771 15.1670000 2
17297 17296 17298 17299 1 180.0000771 15.1670000 2
17289 17298 17296 17294 1 180.0000771 15.1670000 2
17289 17298 17296 17297 1 180.0000771 15.1670000 2
17294 17298 17296 17297 4 180.0000771 4.6024000 2
17302 17303 17304 17305 1 180.0000771 15.1670000 2
17302 17303 17304 17306 1 180.0000771 15.1670000 2
17305 17303 17304 17306 4 180.0000771 4.6024000 2
17302 17303 17312 17304 4 180.0000771 4.6024000 2
17302 17303 17312 17310 1 180.0000771 15.1670000 2
17302 17303 17312 17313 1 180.0000771 15.1670000 2
17304 17303 17312 17310 1 180.0000771 15.1670000 2
17304 17303 17312 17313 1 180.0000771 15.1670000 2
17305 17304 17303 17312 1 180.0000771 15.1670000 2
17306 17304 17303 17312 1 180.0000771 15.1670000 2
17303 17304 17306 17307 1 180.0000771 15.1670000 2
17303 17304 17306 17308 1 180.0000771 15.1670000 2
17305 17304 17306 17307 1 180.0000771 15.1670000 2
17305 17304 17306 17308 1 180.0000771 15.1670000 2
17304 17306 17308 17309 1 180.0000771 15.1670000 2
17304 17306 17308 17310 1 180.0000771 15.1670000 2
17307 17306 17308 17309 1 180.0000771 15.1670000 2
17307 17306 17308 17310 1 180.0000771 15.1670000 2
17304 17308 17306 17307 4 180.0000771 4.6024000 2
17306 17308 17310 17311 1 180.0000771 15.1670000 2
17306 17308 17310 17312 1 180.0000771 15.1670000 2
17309 17308 17310 17311 1 180.0000771 15.1670000 2
17309 17308 17310 17312 1 180.0000771 15.1670000 2
17306 17310 17308 17309 4 180.0000771 4.6024000 2
17303 17310 17312 17313 4 180.0000771 4.6024000 2
17308 17310 17312 17313 1 180.0000771 15.1670000 2
17311 17310 17312 17313 1 180.0000771 15.1670000 2
17303 17312 17310 17308 1 180.0000771 15.1670000 2
17303 17312 17310 17311 1 180.0000771 15.1670000 2
17308 17312 17310 17311 4 180.0000771 4.6024000 2
17316 17317 17318 17319 1 180.0000771 15.1670000 2
17316 17317 17318 17320 1 180.0000771 15.1670000 2
17319 17317 17318 17320 4 180.0000771 4.6024000 2
17316 17317 17326 17318 4 180.0000771 4.6024000 2
17316 17317 17326 17324 1 180.0000771 15.1670000 2
17316 17317 17326 17327 1 180.0000771 15.1670000 2
17318 17317 17326 17324 1 180.0000771 15.1670000 2
17318 17317 17326 17327 1 180.0000771 15.1670000 2
17319 17318 17317 17326 1 180.0000771 15.1670000 2
17320 17318 17317 17326 1 180.0000771 15.1670000 2
17317 17318 17320 17321 1 180.0000771 15.1670000 2
17317 17318 17320 17322 1 180.0000771 15.1670000 2
17319 17318 17320 17321 1 180.0000771 15.1670000 2
17319 17318 17320 17322 1 180.0000771 15.1670000 2
17318 17320 17322 17323 1 180.0000771 15.1670000 2
17318 17320 17322 17324 1 180.0000771 15.1670000 2
17321 17320 17322 17323 1 180.0000771 15.1670000 2
17321 17320 17322 17324 1 180.0000771 15.1670000 2
17318 17322 17320 17321 4 180.0000771 4.6024000 2
17320 17322 17324 17325 1 180.0000771 15.1670000 2
17320 17322 17324 17326 1 180.0000771 15.1670000 2
17323 17322 17324 17325 1 180.0000771 15.1670000 2
17323 17322 17324 17326 1 180.0000771 15.1670000 2
17320 17324 17322 17323 4 180.0000771 4.6024000 2
17317 17324 17326 17327 4 180.0000771 4.6024000 2
17322 17324 17326 17327 1 180.0000771 15.1670000 2
17325 17324 17326 17327 1 180.0000771 15.1670000 2
17317 17326 17324 17322 1 180.0000771 15.1670000 2
17317 17326 17324 17325 1 180.0000771 15.1670000 2
17322 17326 17324 17325 4 180.0000771 4.6024000 2
17330 17331 17332 17333 1 180.0000771 15.1670000 2
17330 17331 17332 17334 1 180.0000771 15.1670000 2
17333 17331 17332 17334 4 180.0000771 4.6024000 2
17330 17331 17340 17332 4 180.0000771 4.6024000 2
17330 17331 17340 17338 1 180.0000771 15.1670000 2
17330 17331 17340 17341 1 180.0000771 15.1670000 2
17332 17331 17340 17338 1 180.0000771 15.1670000 2
17332 17331 17340 17341 1 180.0000771 15.1670000 2
17333 17332 17331 17340 1 180.0000771 15.1670000 2
17334 17332 17331 17340 1 180.0000771 15.1670000 2
17331 17332 17334 17335 1 180.0000771 15.1670000 2
17331 17332 17334 17336 1 180.0000771 15.1670000 2
17333 17332 17334 17335 1 180.0000771 15.1670000 2
17333 17332 17334 17336 1 180.0000771 15.1670000 2
17332 17334 17336 17337 1 180.0000771 15.1670000 2
17332 17334 17336 17338 1 180.0000771 15.1670000 2
17335 17334 17336 17337 1 180.0000771 15.1670000 2
17335 17334 17336 17338 1 180.0000771 15.1670000 2
17332 17336 17334 17335 4 180.0000771 4.6024000 2
17334 17336 17338 17339 1 180.0000771 15.1670000 2
17334 17336 17338 17340 1 180.0000771 15.1670000 2
17337 17336 17338 17339 1 180.0000771 15.1670000 2
17337 17336 17338 17340 1 180.0000771 15.1670000 2
17334 17338 17336 17337 4 180.0000771 4.6024000 2
17331 17338 17340 17341 4 180.0000771 4.6024000 2
17336 17338 17340 17341 1 180.0000771 15.1670000 2
17339 17338 17340 17341 1 180.0000771 15.1670000 2
17331 17340 17338 17336 1 180.0000771 15.1670000 2
17331 17340 17338 17339 1 180.0000771 15.1670000 2
17336 17340 17338 17339 4 180.0000771 4.6024000 2
17344 17345 17346 17347 1 180.0000771 15.1670000 2
17344 17345 17346 17348 1 180.0000771 15.1670000 2
17347 17345 17346 17348 4 180.0000771 4.6024000 2
17344 17345 17354 17346 4 180.0000771 4.6024000 2
17344 17345 17354 17352 1 180.0000771 15.1670000 2
17344 17345 17354 17355 1 180.0000771 15.1670000 2
17346 17345 17354 17352 1 180.0000771 15.1670000 2
17346 17345 17354 17355 1 180.0000771 15.1670000 2
17347 17346 17345 17354 1 180.0000771 15.1670000 2
17348 17346 17345 17354 1 180.0000771 15.1670000 2
17345 17346 17348 17349 1 180.0000771 15.1670000 2
17345 17346 17348 17350 1 180.0000771 15.1670000 2
17347 17346 17348 17349 1 180.0000771 15.1670000 2
17347 17346 17348 17350 1 180.0000771 15.1670000 2
17346 17348 17350 17351 1 180.0000771 15.1670000 2
17346 17348 17350 17352 1 180.0000771 15.1670000 2
17349 17348 17350 17351 1 180.0000771 15.1670000 2
17349 17348 17350 17352 1 180.0000771 15.1670000 2
17346 17350 17348 17349 4 180.0000771 4.6024000 2
17348 17350 17352 17353 1 180.0000771 15.1670000 2
17348 17350 17352 17354 1 180.0000771 15.1670000 2
17351 17350 17352 17353 1 180.0000771 15.1670000 2
17351 17350 17352 17354 1 180.0000771 15.1670000 2
17348 17352 17350 17351 4 180.0000771 4.6024000 2
17345 17352 17354 17355 4 180.0000771 4.6024000 2
17350 17352 17354 17355 1 180.0000771 15.1670000 2
17353 17352 17354 17355 1 180.0000771 15.1670000 2
17345 17354 17352 17350 1 180.0000771 15.1670000 2
17345 17354 17352 17353 1 180.0000771 15.1670000 2
17350 17354 17352 17353 4 180.0000771 4.6024000 2
17358 17359 17360 17361 1 180.0000771 15.1670000 2
17358 17359 17360 17362 1 180.0000771 15.1670000 2
17361 17359 17360 17362 4 180.0000771 4.6024000 2
17358 17359 17368 17360 4 180.0000771 4.6024000 2
17358 17359 17368 17366 1 180.0000771 15.1670000 2
17358 17359 17368 17369 1 180.0000771 15.1670000 2
17360 17359 17368 17366 1 180.0000771 15.1670000 2
17360 17359 17368 17369 1 180.0000771 15.1670000 2
17361 17360 17359 17368 1 180.0000771 15.1670000 2
17362 17360 17359 17368 1 180.0000771 15.1670000 2
17359 17360 17362 17363 1 180.0000771 15.1670000 2
17359 17360 17362 17364 1 180.0000771 15.1670000 2
17361 17360 17362 17363 1 180.0000771 15.1670000 2
17361 17360 17362 17364 1 180.0000771 15.1670000 2
17360 17362 17364 17365 1 180.0000771 15.1670000 2
17360 17362 17364 17366 1 180.0000771 15.1670000 2
17363 17362 17364 17365 1 180.0000771 15.1670000 2
17363 17362 17364 17366 1 180.0000771 15.1670000 2
17360 17364 17362 17363 4 180.0000771 4.6024000 2
17362 17364 17366 17367 1 180.0000771 15.1670000 2
17362 17364 17366 17368 1 180.0000771 15.1670000 2
17365 17364 17366 17367 1 180.0000771 15.1670000 2
17365 17364 17366 17368 1 180.0000771 15.1670000 2
17362 17366 17364 17365 4 180.0000771 4.6024000 2
17359 17366 17368 17369 4 180.0000771 4.6024000 2
17364 17366 17368 17369 1 180.0000771 15.1670000 2
17367 17366 17368 17369 1 180.0000771 15.1670000 2
17359 17368 17366 17364 1 180.0000771 15.1670000 2
17359 17368 17366 17367 1 180.0000771 15.1670000 2
17364 17368 17366 17367 4 180.0000771 4.6024000 2
17372 17373 17374 17375 1 180.0000771 15.1670000 2
17372 17373 17374 17376 1 180.0000771 15.1670000 2
17375 17373 17374 17376 4 180.0000771 4.6024000 2
17372 17373 17382 17374 4 180.0000771 4.6024000 2
17372 17373 17382 17380 1 180.0000771 15.1670000 2
17372 17373 17382 17383 1 180.0000771 15.1670000 2
17374 17373 17382 17380 1 180.0000771 15.1670000 2
17374 17373 17382 17383 1 180.0000771 15.1670000 2
17375 17374 17373 17382 1 180.0000771 15.1670000 2
17376 17374 17373 17382 1 180.0000771 15.1670000 2
17373 17374 17376 17377 1 180.0000771 15.1670000 2
17373 17374 17376 17378 1 180.0000771 15.1670000 2
17375 17374 17376 17377 1 180.0000771 15.1670000 2
17375 17374 17376 17378 1 180.0000771 15.1670000 2
17374 17376 17378 17379 1 180.0000771 15.1670000 2
17374 17376 17378 17380 1 180.0000771 15.1670000 2
17377 17376 17378 17379 1 180.0000771 15.1670000 2
17377 17376 17378 17380 1 180.0000771 15.1670000 2
17374 17378 17376 17377 4 180.0000771 4.6024000 2
17376 17378 17380 17381 1 180.0000771 15.1670000 2
17376 17378 17380 17382 1 180.0000771 15.1670000 2
17379 17378 17380 17381 1 180.0000771 15.1670000 2
17379 17378 17380 17382 1 180.0000771 15.1670000 2
17376 17380 17378 17379 4 180.0000771 4.6024000 2
17373 17380 17382 17383 4 180.0000771 4.6024000 2
17378 17380 17382 17383 1 180.0000771 15.1670000 2
17381 17380 17382 17383 1 180.0000771 15.1670000 2
17373 17382 17380 17378 1 180.0000771 15.1670000 2
17373 17382 17380 17381 1 180.0000771 15.1670000 2
17378 17382 17380 17381 4 180.0000771 4.6024000 2
17386 17387 17388 17389 1 180.0000771 15.1670000 2
17386 17387 17388 17390 1 180.0000771 15.1670000 2
17389 17387 17388 17390 4 180.0000771 4.6024000 2
17386 17387 17396 17388 4 180.0000771 4.6024000 2
17386 17387 17396 17394 1 180.0000771 15.1670000 2
17386 17387 17396 17397 1 180.0000771 15.1670000 2
17388 17387 17396 17394 1 180.0000771 15.1670000 2
17388 17387 17396 17397 1 180.0000771 15.1670000 2
17389 17388 17387 17396 1 180.0000771 15.1670000 2
17390 17388 17387 17396 1 180.0000771 15.1670000 2
17387 17388 17390 17391 1 180.0000771 15.1670000 2
17387 17388 17390 17392 1 180.0000771 15.1670000 2
17389 17388 17390 17391 1 180.0000771 15.1670000 2
17389 17388 17390 17392 1 180.0000771 15.1670000 2
17388 17390 17392 17393 1 180.0000771 15.1670000 2
17388 17390 17392 17394 1 180.0000771 15.1670000 2
17391 17390 17392 17393 1 180.0000771 15.1670000 2
17391 17390 17392 17394 1 180.0000771 15.1670000 2
17388 17392 17390 17391 4 180.0000771 4.6024000 2
17390 17392 17394 17395 1 180.0000771 15.1670000 2
17390 17392 17394 17396 1 180.0000771 15.1670000 2
17393 17392 17394 17395 1 180.0000771 15.1670000 2
17393 17392 17394 17396 1 180.0000771 15.1670000 2
17390 17394 17392 17393 4 180.0000771 4.6024000 2
17387 17394 17396 17397 4 180.0000771 4.6024000 2
17392 17394 17396 17397 1 180.0000771 15.1670000 2
17395 17394 17396 17397 1 180.0000771 15.1670000 2
17387 17396 17394 17392 1 180.0000771 15.1670000 2
17387 17396 17394 17395 1 180.0000771 15.1670000 2
17392 17396 17394 17395 4 180.0000771 4.6024000 2
17400 17401 17402 17403 1 180.0000771 15.1670000 2
17400 17401 17402 17404 1 180.0000771 15.1670000 2
17403 17401 17402 17404 4 180.0000771 4.6024000 2
17400 17401 17410 17402 4 180.0000771 4.6024000 2
17400 17401 17410 17408 1 180.0000771 15.1670000 2
17400 17401 17410 17411 1 180.0000771 15.1670000 2
17402 17401 17410 17408 1 180.0000771 15.1670000 2
17402 17401 17410 17411 1 180.0000771 15.1670000 2
17403 17402 17401 17410 1 180.0000771 15.1670000 2
17404 17402 17401 17410 1 180.0000771 15.1670000 2
17401 17402 17404 17405 1 180.0000771 15.1670000 2
17401 17402 17404 17406 1 180.0000771 15.1670000 2
17403 17402 17404 17405 1 180.0000771 15.1670000 2
17403 17402 17404 17406 1 180.0000771 15.1670000 2
17402 17404 17406 17407 1 180.0000771 15.1670000 2
17402 17404 17406 17408 1 180.0000771 15.1670000 2
17405 17404 17406 17407 1 180.0000771 15.1670000 2
17405 17404 17406 17408 1 180.0000771 15.1670000 2
17402 17406 17404 17405 4 180.0000771 4.6024000 2
17404 17406 17408 17409 1 180.0000771 15.1670000 2
17404 17406 17408 17410 1 180.0000771 15.1670000 2
17407 17406 17408 17409 1 180.0000771 15.1670000 2
17407 17406 17408 17410 1 180.0000771 15.1670000 2
17404 17408 17406 17407 4 180.0000771 4.6024000 2
17401 17408 17410 17411 4 180.0000771 4.6024000 2
17406 17408 17410 17411 1 180.0000771 15.1670000 2
17409 17408 17410 17411 1 180.0000771 15.1670000 2
17401 17410 17408 17406 1 180.0000771 15.1670000 2
17401 17410 17408 17409 1 180.0000771 15.1670000 2
17406 17410 17408 17409 4 180.0000771 4.6024000 2
17414 17415 17416 17417 1 180.0000771 15.1670000 2
17414 17415 17416 17418 1 180.0000771 15.1670000 2
17417 17415 17416 17418 4 180.0000771 4.6024000 2
17414 17415 17424 17416 4 180.0000771 4.6024000 2
17414 17415 17424 17422 1 180.0000771 15.1670000 2
17414 17415 17424 17425 1 180.0000771 15.1670000 2
17416 17415 17424 17422 1 180.0000771 15.1670000 2
17416 17415 17424 17425 1 180.0000771 15.1670000 2
17417 17416 17415 17424 1 180.0000771 15.1670000 2
17418 17416 17415 17424 1 180.0000771 15.1670000 2
17415 17416 17418 17419 1 180.0000771 15.1670000 2
17415 17416 17418 17420 1 180.0000771 15.1670000 2
17417 17416 17418 17419 1 180.0000771 15.1670000 2
17417 17416 17418 17420 1 180.0000771 15.1670000 2
17416 17418 17420 17421 1 180.0000771 15.1670000 2
17416 17418 17420 17422 1 180.0000771 15.1670000 2
17419 17418 17420 17421 1 180.0000771 15.1670000 2
17419 17418 17420 17422 1 180.0000771 15.1670000 2
17416 17420 17418 17419 4 180.0000771 4.6024000 2
17418 17420 17422 17423 1 180.0000771 15.1670000 2
17418 17420 17422 17424 1 180.0000771 15.1670000 2
17421 17420 17422 17423 1 180.0000771 15.1670000 2
17421 17420 17422 17424 1 180.0000771 15.1670000 2
17418 17422 17420 17421 4 180.0000771 4.6024000 2
17415 17422 17424 17425 4 180.0000771 4.6024000 2
17420 17422 17424 17425 1 180.0000771 15.1670000 2
17423 17422 17424 17425 1 180.0000771 15.1670000 2
17415 17424 17422 17420 1 180.0000771 15.1670000 2
17415 17424 17422 17423 1 180.0000771 15.1670000 2
17420 17424 17422 17423 4 180.0000771 4.6024000 2
17428 17429 17430 17431 1 180.0000771 15.1670000 2
17428 17429 17430 17432 1 180.0000771 15.1670000 2
17431 17429 17430 17432 4 180.0000771 4.6024000 2
17428 17429 17438 17430 4 180.0000771 4.6024000 2
17428 17429 17438 17436 1 180.0000771 15.1670000 2
17428 17429 17438 17439 1 180.0000771 15.1670000 2
17430 17429 17438 17436 1 180.0000771 15.1670000 2
17430 17429 17438 17439 1 180.0000771 15.1670000 2
17431 17430 17429 17438 1 180.0000771 15.1670000 2
17432 17430 17429 17438 1 180.0000771 15.1670000 2
17429 17430 17432 17433 1 180.0000771 15.1670000 2
17429 17430 17432 17434 1 180.0000771 15.1670000 2
17431 17430 17432 17433 1 180.0000771 15.1670000 2
17431 17430 17432 17434 1 180.0000771 15.1670000 2
17430 17432 17434 17435 1 180.0000771 15.1670000 2
17430 17432 17434 17436 1 180.0000771 15.1670000 2
17433 17432 17434 17435 1 180.0000771 15.1670000 2
17433 17432 17434 17436 1 180.0000771 15.1670000 2
17430 17434 17432 17433 4 180.0000771 4.6024000 2
17432 17434 17436 17437 1 180.0000771 15.1670000 2
17432 17434 17436 17438 1 180.0000771 15.1670000 2
17435 17434 17436 17437 1 180.0000771 15.1670000 2
17435 17434 17436 17438 1 180.0000771 15.1670000 2
17432 17436 17434 17435 4 180.0000771 4.6024000 2
17429 17436 17438 17439 4 180.0000771 4.6024000 2
17434 17436 17438 17439 1 180.0000771 15.1670000 2
17437 17436 17438 17439 1 180.0000771 15.1670000 2
17429 17438 17436 17434 1 180.0000771 15.1670000 2
17429 17438 17436 17437 1 180.0000771 15.1670000 2
17434 17438 17436 17437 4 180.0000771 4.6024000 2
17442 17443 17444 17445 1 180.0000771 15.1670000 2
17442 17443 17444 17446 1 180.0000771 15.1670000 2
17445 17443 17444 17446 4 180.0000771 4.6024000 2
17442 17443 17452 17444 4 180.0000771 4.6024000 2
17442 17443 17452 17450 1 180.0000771 15.1670000 2
17442 17443 17452 17453 1 180.0000771 15.1670000 2
17444 17443 17452 17450 1 180.0000771 15.1670000 2
17444 17443 17452 17453 1 180.0000771 15.1670000 2
17445 17444 17443 17452 1 180.0000771 15.1670000 2
17446 17444 17443 17452 1 180.0000771 15.1670000 2
17443 17444 17446 17447 1 180.0000771 15.1670000 2
17443 17444 17446 17448 1 180.0000771 15.1670000 2
17445 17444 17446 17447 1 180.0000771 15.1670000 2
17445 17444 17446 17448 1 180.0000771 15.1670000 2
17444 17446 17448 17449 1 180.0000771 15.1670000 2
17444 17446 17448 17450 1 180.0000771 15.1670000 2
17447 17446 17448 17449 1 180.0000771 15.1670000 2
17447 17446 17448 17450 1 180.0000771 15.1670000 2
17444 17448 17446 17447 4 180.0000771 4.6024000 2
17446 17448 17450 17451 1 180.0000771 15.1670000 2
17446 17448 17450 17452 1 180.0000771 15.1670000 2
17449 17448 17450 17451 1 180.0000771 15.1670000 2
17449 17448 17450 17452 1 180.0000771 15.1670000 2
17446 17450 17448 17449 4 180.0000771 4.6024000 2
17443 17450 17452 17453 4 180.0000771 4.6024000 2
17448 17450 17452 17453 1 180.0000771 15.1670000 2
17451 17450 17452 17453 1 180.0000771 15.1670000 2
17443 17452 17450 17448 1 180.0000771 15.1670000 2
17443 17452 17450 17451 1 180.0000771 15.1670000 2
17448 17452 17450 17451 4 180.0000771 4.6024000 2
17456 17457 17458 17459 1 180.0000771 15.1670000 2
17456 17457 17458 17460 1 180.0000771 15.1670000 2
17459 17457 17458 17460 4 180.0000771 4.6024000 2
17456 17457 17466 17458 4 180.0000771 4.6024000 2
17456 17457 17466 17464 1 180.0000771 15.1670000 2
17456 17457 17466 17467 1 180.0000771 15.1670000 2
17458 17457 17466 17464 1 180.0000771 15.1670000 2
17458 17457 17466 17467 1 180.0000771 15.1670000 2
17459 17458 17457 17466 1 180.0000771 15.1670000 2
17460 17458 17457 17466 1 180.0000771 15.1670000 2
17457 17458 17460 17461 1 180.0000771 15.1670000 2
17457 17458 17460 17462 1 180.0000771 15.1670000 2
17459 17458 17460 17461 1 180.0000771 15.1670000 2
17459 17458 17460 17462 1 180.0000771 15.1670000 2
17458 17460 17462 17463 1 180.0000771 15.1670000 2
17458 17460 17462 17464 1 180.0000771 15.1670000 2
17461 17460 17462 17463 1 180.0000771 15.1670000 2
17461 17460 17462 17464 1 180.0000771 15.1670000 2
17458 17462 17460 17461 4 180.0000771 4.6024000 2
17460 17462 17464 17465 1 180.0000771 15.1670000 2
17460 17462 17464 17466 1 180.0000771 15.1670000 2
17463 17462 17464 17465 1 180.0000771 15.1670000 2
17463 17462 17464 17466 1 180.0000771 15.1670000 2
17460 17464 17462 17463 4 180.0000771 4.6024000 2
17457 17464 17466 17467 4 180.0000771 4.6024000 2
17462 17464 17466 17467 1 180.0000771 15.1670000 2
17465 17464 17466 17467 1 180.0000771 15.1670000 2
17457 17466 17464 17462 1 180.0000771 15.1670000 2
17457 17466 17464 17465 1 180.0000771 15.1670000 2
17462 17466 17464 17465 4 180.0000771 4.6024000 2
17470 17471 17472 17473 1 180.0000771 15.1670000 2
17470 17471 17472 17474 1 180.0000771 15.1670000 2
17473 17471 17472 17474 4 180.0000771 4.6024000 2
17470 17471 17480 17472 4 180.0000771 4.6024000 2
17470 17471 17480 17478 1 180.0000771 15.1670000 2
17470 17471 17480 17481 1 180.0000771 15.1670000 2
17472 17471 17480 17478 1 180.0000771 15.1670000 2
17472 17471 17480 17481 1 180.0000771 15.1670000 2
17473 17472 17471 17480 1 180.0000771 15.1670000 2
17474 17472 17471 17480 1 180.0000771 15.1670000 2
17471 17472 17474 17475 1 180.0000771 15.1670000 2
17471 17472 17474 17476 1 180.0000771 15.1670000 2
17473 17472 17474 17475 1 180.0000771 15.1670000 2
17473 17472 17474 17476 1 180.0000771 15.1670000 2
17472 17474 17476 17477 1 180.0000771 15.1670000 2
17472 17474 17476 17478 1 180.0000771 15.1670000 2
17475 17474 17476 17477 1 180.0000771 15.1670000 2
17475 17474 17476 17478 1 180.0000771 15.1670000 2
17472 17476 17474 17475 4 180.0000771 4.6024000 2
17474 17476 17478 17479 1 180.0000771 15.1670000 2
17474 17476 17478 17480 1 180.0000771 15.1670000 2
17477 17476 17478 17479 1 180.0000771 15.1670000 2
17477 17476 17478 17480 1 180.0000771 15.1670000 2
17474 17478 17476 17477 4 180.0000771 4.6024000 2
17471 17478 17480 17481 4 180.0000771 4.6024000 2
17476 17478 17480 17481 1 180.0000771 15.1670000 2
17479 17478 17480 17481 1 180.0000771 15.1670000 2
17471 17480 17478 17476 1 180.0000771 15.1670000 2
17471 17480 17478 17479 1 180.0000771 15.1670000 2
17476 17480 17478 17479 4 180.0000771 4.6024000 2
17484 17485 17486 17487 1 180.0000771 15.1670000 2
17484 17485 17486 17488 1 180.0000771 15.1670000 2
17487 17485 17486 17488 4 180.0000771 4.6024000 2
17484 17485 17494 17486 4 180.0000771 4.6024000 2
17484 17485 17494 17492 1 180.0000771 15.1670000 2
17484 17485 17494 17495 1 180.0000771 15.1670000 2
17486 17485 17494 17492 1 180.0000771 15.1670000 2
17486 17485 17494 17495 1 180.0000771 15.1670000 2
17487 17486 17485 17494 1 180.0000771 15.1670000 2
17488 17486 17485 17494 1 180.0000771 15.1670000 2
17485 17486 17488 17489 1 180.0000771 15.1670000 2
17485 17486 17488 17490 1 180.0000771 15.1670000 2
17487 17486 17488 17489 1 180.0000771 15.1670000 2
17487 17486 17488 17490 1 180.0000771 15.1670000 2
17486 17488 17490 17491 1 180.0000771 15.1670000 2
17486 17488 17490 17492 1 180.0000771 15.1670000 2
17489 17488 17490 17491 1 180.0000771 15.1670000 2
17489 17488 17490 17492 1 180.0000771 15.1670000 2
17486 17490 17488 17489 4 180.0000771 4.6024000 2
17488 17490 17492 17493 1 180.0000771 15.1670000 2
17488 17490 17492 17494 1 180.0000771 15.1670000 2
17491 17490 17492 17493 1 180.0000771 15.1670000 2
17491 17490 17492 17494 1 180.0000771 15.1670000 2
17488 17492 17490 17491 4 180.0000771 4.6024000 2
17485 17492 17494 17495 4 180.0000771 4.6024000 2
17490 17492 17494 17495 1 180.0000771 15.1670000 2
17493 17492 17494 17495 1 180.0000771 15.1670000 2
17485 17494 17492 17490 1 180.0000771 15.1670000 2
17485 17494 17492 17493 1 180.0000771 15.1670000 2
17490 17494 17492 17493 4 180.0000771 4.6024000 2
17498 17499 17500 17501 1 180.0000771 15.1670000 2
17498 17499 17500 17502 1 180.0000771 15.1670000 2
17501 17499 17500 17502 4 180.0000771 4.6024000 2
17498 17499 17508 17500 4 180.0000771 4.6024000 2
17498 17499 17508 17506 1 180.0000771 15.1670000 2
17498 17499 17508 17509 1 180.0000771 15.1670000 2
17500 17499 17508 17506 1 180.0000771 15.1670000 2
17500 17499 17508 17509 1 180.0000771 15.1670000 2
17501 17500 17499 17508 1 180.0000771 15.1670000 2
17502 17500 17499 17508 1 180.0000771 15.1670000 2
17499 17500 17502 17503 1 180.0000771 15.1670000 2
17499 17500 17502 17504 1 180.0000771 15.1670000 2
17501 17500 17502 17503 1 180.0000771 15.1670000 2
17501 17500 17502 17504 1 180.0000771 15.1670000 2
17500 17502 17504 17505 1 180.0000771 15.1670000 2
17500 17502 17504 17506 1 180.0000771 15.1670000 2
17503 17502 17504 17505 1 180.0000771 15.1670000 2
17503 17502 17504 17506 1 180.0000771 15.1670000 2
17500 17504 17502 17503 4 180.0000771 4.6024000 2
17502 17504 17506 17507 1 180.0000771 15.1670000 2
17502 17504 17506 17508 1 180.0000771 15.1670000 2
17505 17504 17506 17507 1 180.0000771 15.1670000 2
17505 17504 17506 17508 1 180.0000771 15.1670000 2
17502 17506 17504 17505 4 180.0000771 4.6024000 2
17499 17506 17508 17509 4 180.0000771 4.6024000 2
17504 17506 17508 17509 1 180.0000771 15.1670000 2
17507 17506 17508 17509 1 180.0000771 15.1670000 2
17499 17508 17506 17504 1 180.0000771 15.1670000 2
17499 17508 17506 17507 1 180.0000771 15.1670000 2
17504 17508 17506 17507 4 180.0000771 4.6024000 2
17512 17513 17514 17515 1 180.0000771 15.1670000 2
17512 17513 17514 17516 1 180.0000771 15.1670000 2
17515 17513 17514 17516 4 180.0000771 4.6024000 2
17512 17513 17522 17514 4 180.0000771 4.6024000 2
17512 17513 17522 17520 1 180.0000771 15.1670000 2
17512 17513 17522 17523 1 180.0000771 15.1670000 2
17514 17513 17522 17520 1 180.0000771 15.1670000 2
17514 17513 17522 17523 1 180.0000771 15.1670000 2
17515 17514 17513 17522 1 180.0000771 15.1670000 2
17516 17514 17513 17522 1 180.0000771 15.1670000 2
17513 17514 17516 17517 1 180.0000771 15.1670000 2
17513 17514 17516 17518 1 180.0000771 15.1670000 2
17515 17514 17516 17517 1 180.0000771 15.1670000 2
17515 17514 17516 17518 1 180.0000771 15.1670000 2
17514 17516 17518 17519 1 180.0000771 15.1670000 2
17514 17516 17518 17520 1 180.0000771 15.1670000 2
17517 17516 17518 17519 1 180.0000771 15.1670000 2
17517 17516 17518 17520 1 180.0000771 15.1670000 2
17514 17518 17516 17517 4 180.0000771 4.6024000 2
17516 17518 17520 17521 1 180.0000771 15.1670000 2
17516 17518 17520 17522 1 180.0000771 15.1670000 2
17519 17518 17520 17521 1 180.0000771 15.1670000 2
17519 17518 17520 17522 1 180.0000771 15.1670000 2
17516 17520 17518 17519 4 180.0000771 4.6024000 2
17513 17520 17522 17523 4 180.0000771 4.6024000 2
17518 17520 17522 17523 1 180.0000771 15.1670000 2
17521 17520 17522 17523 1 180.0000771 15.1670000 2
17513 17522 17520 17518 1 180.0000771 15.1670000 2
17513 17522 17520 17521 1 180.0000771 15.1670000 2
17518 17522 17520 17521 4 180.0000771 4.6024000 2
17526 17527 17528 17529 1 180.0000771 15.1670000 2
17526 17527 17528 17530 1 180.0000771 15.1670000 2
17529 17527 17528 17530 4 180.0000771 4.6024000 2
17526 17527 17536 17528 4 180.0000771 4.6024000 2
17526 17527 17536 17534 1 180.0000771 15.1670000 2
17526 17527 17536 17537 1 180.0000771 15.1670000 2
17528 17527 17536 17534 1 180.0000771 15.1670000 2
17528 17527 17536 17537 1 180.0000771 15.1670000 2
17529 17528 17527 17536 1 180.0000771 15.1670000 2
17530 17528 17527 17536 1 180.0000771 15.1670000 2
17527 17528 17530 17531 1 180.0000771 15.1670000 2
17527 17528 17530 17532 1 180.0000771 15.1670000 2
17529 17528 17530 17531 1 180.0000771 15.1670000 2
17529 17528 17530 17532 1 180.0000771 15.1670000 2
17528 17530 17532 17533 1 180.0000771 15.1670000 2
17528 17530 17532 17534 1 180.0000771 15.1670000 2
17531 17530 17532 17533 1 180.0000771 15.1670000 2
17531 17530 17532 17534 1 180.0000771 15.1670000 2
17528 17532 17530 17531 4 180.0000771 4.6024000 2
17530 17532 17534 17535 1 180.0000771 15.1670000 2
17530 17532 17534 17536 1 180.0000771 15.1670000 2
17533 17532 17534 17535 1 180.0000771 15.1670000 2
17533 17532 17534 17536 1 180.0000771 15.1670000 2
17530 17534 17532 17533 4 180.0000771 4.6024000 2
17527 17534 17536 17537 4 180.0000771 4.6024000 2
17532 17534 17536 17537 1 180.0000771 15.1670000 2
17535 17534 17536 17537 1 180.0000771 15.1670000 2
17527 17536 17534 17532 1 180.0000771 15.1670000 2
17527 17536 17534 17535 1 180.0000771 15.1670000 2
17532 17536 17534 17535 4 180.0000771 4.6024000 2
17540 17541 17542 17543 1 180.0000771 15.1670000 2
17540 17541 17542 17544 1 180.0000771 15.1670000 2
17543 17541 17542 17544 4 180.0000771 4.6024000 2
17540 17541 17550 17542 4 180.0000771 4.6024000 2
17540 17541 17550 17548 1 180.0000771 15.1670000 2
17540 17541 17550 17551 1 180.0000771 15.1670000 2
17542 17541 17550 17548 1 180.0000771 15.1670000 2
17542 17541 17550 17551 1 180.0000771 15.1670000 2
17543 17542 17541 17550 1 180.0000771 15.1670000 2
17544 17542 17541 17550 1 180.0000771 15.1670000 2
17541 17542 17544 17545 1 180.0000771 15.1670000 2
17541 17542 17544 17546 1 180.0000771 15.1670000 2
17543 17542 17544 17545 1 180.0000771 15.1670000 2
17543 17542 17544 17546 1 180.0000771 15.1670000 2
17542 17544 17546 17547 1 180.0000771 15.1670000 2
17542 17544 17546 17548 1 180.0000771 15.1670000 2
17545 17544 17546 17547 1 180.0000771 15.1670000 2
17545 17544 17546 17548 1 180.0000771 15.1670000 2
17542 17546 17544 17545 4 180.0000771 4.6024000 2
17544 17546 17548 17549 1 180.0000771 15.1670000 2
17544 17546 17548 17550 1 180.0000771 15.1670000 2
17547 17546 17548 17549 1 180.0000771 15.1670000 2
17547 17546 17548 17550 1 180.0000771 15.1670000 2
17544 17548 17546 17547 4 180.0000771 4.6024000 2
17541 17548 17550 17551 4 180.0000771 4.6024000 2
17546 17548 17550 17551 1 180.0000771 15.1670000 2
17549 17548 17550 17551 1 180.0000771 15.1670000 2
17541 17550 17548 17546 1 180.0000771 15.1670000 2
17541 17550 17548 17549 1 180.0000771 15.1670000 2
17546 17550 17548 17549 4 180.0000771 4.6024000 2
17554 17555 17556 17557 1 180.0000771 15.1670000 2
17554 17555 17556 17558 1 180.0000771 15.1670000 2
17557 17555 17556 17558 4 180.0000771 4.6024000 2
17554 17555 17564 17556 4 180.0000771 4.6024000 2
17554 17555 17564 17562 1 180.0000771 15.1670000 2
17554 17555 17564 17565 1 180.0000771 15.1670000 2
17556 17555 17564 17562 1 180.0000771 15.1670000 2
17556 17555 17564 17565 1 180.0000771 15.1670000 2
17557 17556 17555 17564 1 180.0000771 15.1670000 2
17558 17556 17555 17564 1 180.0000771 15.1670000 2
17555 17556 17558 17559 1 180.0000771 15.1670000 2
17555 17556 17558 17560 1 180.0000771 15.1670000 2
17557 17556 17558 17559 1 180.0000771 15.1670000 2
17557 17556 17558 17560 1 180.0000771 15.1670000 2
17556 17558 17560 17561 1 180.0000771 15.1670000 2
17556 17558 17560 17562 1 180.0000771 15.1670000 2
17559 17558 17560 17561 1 180.0000771 15.1670000 2
17559 17558 17560 17562 1 180.0000771 15.1670000 2
17556 17560 17558 17559 4 180.0000771 4.6024000 2
17558 17560 17562 17563 1 180.0000771 15.1670000 2
17558 17560 17562 17564 1 180.0000771 15.1670000 2
17561 17560 17562 17563 1 180.0000771 15.1670000 2
17561 17560 17562 17564 1 180.0000771 15.1670000 2
17558 17562 17560 17561 4 180.0000771 4.6024000 2
17555 17562 17564 17565 4 180.0000771 4.6024000 2
17560 17562 17564 17565 1 180.0000771 15.1670000 2
17563 17562 17564 17565 1 180.0000771 15.1670000 2
17555 17564 17562 17560 1 180.0000771 15.1670000 2
17555 17564 17562 17563 1 180.0000771 15.1670000 2
17560 17564 17562 17563 4 180.0000771 4.6024000 2
17568 17569 17570 17571 1 180.0000771 15.1670000 2
17568 17569 17570 17572 1 180.0000771 15.1670000 2
17571 17569 17570 17572 4 180.0000771 4.6024000 2
17568 17569 17578 17570 4 180.0000771 4.6024000 2
17568 17569 17578 17576 1 180.0000771 15.1670000 2
17568 17569 17578 17579 1 180.0000771 15.1670000 2
17570 17569 17578 17576 1 180.0000771 15.1670000 2
17570 17569 17578 17579 1 180.0000771 15.1670000 2
17571 17570 17569 17578 1 180.0000771 15.1670000 2
17572 17570 17569 17578 1 180.0000771 15.1670000 2
17569 17570 17572 17573 1 180.0000771 15.1670000 2
17569 17570 17572 17574 1 180.0000771 15.1670000 2
17571 17570 17572 17573 1 180.0000771 15.1670000 2
17571 17570 17572 17574 1 180.0000771 15.1670000 2
17570 17572 17574 17575 1 180.0000771 15.1670000 2
17570 17572 17574 17576 1 180.0000771 15.1670000 2
17573 17572 17574 17575 1 180.0000771 15.1670000 2
17573 17572 17574 17576 1 180.0000771 15.1670000 2
17570 17574 17572 17573 4 180.0000771 4.6024000 2
17572 17574 17576 17577 1 180.0000771 15.1670000 2
17572 17574 17576 17578 1 180.0000771 15.1670000 2
17575 17574 17576 17577 1 180.0000771 15.1670000 2
17575 17574 17576 17578 1 180.0000771 15.1670000 2
17572 17576 17574 17575 4 180.0000771 4.6024000 2
17569 17576 17578 17579 4 180.0000771 4.6024000 2
17574 17576 17578 17579 1 180.0000771 15.1670000 2
17577 17576 17578 17579 1 180.0000771 15.1670000 2
17569 17578 17576 17574 1 180.0000771 15.1670000 2
17569 17578 17576 17577 1 180.0000771 15.1670000 2
17574 17578 17576 17577 4 180.0000771 4.6024000 2
17582 17583 17584 17585 1 180.0000771 15.1670000 2
17582 17583 17584 17586 1 180.0000771 15.1670000 2
17585 17583 17584 17586 4 180.0000771 4.6024000 2
17582 17583 17592 17584 4 180.0000771 4.6024000 2
17582 17583 17592 17590 1 180.0000771 15.1670000 2
17582 17583 17592 17593 1 180.0000771 15.1670000 2
17584 17583 17592 17590 1 180.0000771 15.1670000 2
17584 17583 17592 17593 1 180.0000771 15.1670000 2
17585 17584 17583 17592 1 180.0000771 15.1670000 2
17586 17584 17583 17592 1 180.0000771 15.1670000 2
17583 17584 17586 17587 1 180.0000771 15.1670000 2
17583 17584 17586 17588 1 180.0000771 15.1670000 2
17585 17584 17586 17587 1 180.0000771 15.1670000 2
17585 17584 17586 17588 1 180.0000771 15.1670000 2
17584 17586 17588 17589 1 180.0000771 15.1670000 2
17584 17586 17588 17590 1 180.0000771 15.1670000 2
17587 17586 17588 17589 1 180.0000771 15.1670000 2
17587 17586 17588 17590 1 180.0000771 15.1670000 2
17584 17588 17586 17587 4 180.0000771 4.6024000 2
17586 17588 17590 17591 1 180.0000771 15.1670000 2
17586 17588 17590 17592 1 180.0000771 15.1670000 2
17589 17588 17590 17591 1 180.0000771 15.1670000 2
17589 17588 17590 17592 1 180.0000771 15.1670000 2
17586 17590 17588 17589 4 180.0000771 4.6024000 2
17583 17590 17592 17593 4 180.0000771 4.6024000 2
17588 17590 17592 17593 1 180.0000771 15.1670000 2
17591 17590 17592 17593 1 180.0000771 15.1670000 2
17583 17592 17590 17588 1 180.0000771 15.1670000 2
17583 17592 17590 17591 1 180.0000771 15.1670000 2
17588 17592 17590 17591 4 180.0000771 4.6024000 2
17596 17597 17598 17599 1 180.0000771 15.1670000 2
17596 17597 17598 17600 1 180.0000771 15.1670000 2
17599 17597 17598 17600 4 180.0000771 4.6024000 2
17596 17597 17606 17598 4 180.0000771 4.6024000 2
17596 17597 17606 17604 1 180.0000771 15.1670000 2
17596 17597 17606 17607 1 180.0000771 15.1670000 2
17598 17597 17606 17604 1 180.0000771 15.1670000 2
17598 17597 17606 17607 1 180.0000771 15.1670000 2
17599 17598 17597 17606 1 180.0000771 15.1670000 2
17600 17598 17597 17606 1 180.0000771 15.1670000 2
17597 17598 17600 17601 1 180.0000771 15.1670000 2
17597 17598 17600 17602 1 180.0000771 15.1670000 2
17599 17598 17600 17601 1 180.0000771 15.1670000 2
17599 17598 17600 17602 1 180.0000771 15.1670000 2
17598 17600 17602 17603 1 180.0000771 15.1670000 2
17598 17600 17602 17604 1 180.0000771 15.1670000 2
17601 17600 17602 17603 1 180.0000771 15.1670000 2
17601 17600 17602 17604 1 180.0000771 15.1670000 2
17598 17602 17600 17601 4 180.0000771 4.6024000 2
17600 17602 17604 17605 1 180.0000771 15.1670000 2
17600 17602 17604 17606 1 180.0000771 15.1670000 2
17603 17602 17604 17605 1 180.0000771 15.1670000 2
17603 17602 17604 17606 1 180.0000771 15.1670000 2
17600 17604 17602 17603 4 180.0000771 4.6024000 2
17597 17604 17606 17607 4 180.0000771 4.6024000 2
17602 17604 17606 17607 1 180.0000771 15.1670000 2
17605 17604 17606 17607 1 180.0000771 15.1670000 2
17597 17606 17604 17602 1 180.0000771 15.1670000 2
17597 17606 17604 17605 1 180.0000771 15.1670000 2
17602 17606 17604 17605 4 180.0000771 4.6024000 2
17610 17611 17612 17613 1 180.0000771 15.1670000 2
17610 17611 17612 17614 1 180.0000771 15.1670000 2
17613 17611 17612 17614 4 180.0000771 4.6024000 2
17610 17611 17620 17612 4 180.0000771 4.6024000 2
17610 17611 17620 17618 1 180.0000771 15.1670000 2
17610 17611 17620 17621 1 180.0000771 15.1670000 2
17612 17611 17620 17618 1 180.0000771 15.1670000 2
17612 17611 17620 17621 1 180.0000771 15.1670000 2
17613 17612 17611 17620 1 180.0000771 15.1670000 2
17614 17612 17611 17620 1 180.0000771 15.1670000 2
17611 17612 17614 17615 1 180.0000771 15.1670000 2
17611 17612 17614 17616 1 180.0000771 15.1670000 2
17613 17612 17614 17615 1 180.0000771 15.1670000 2
17613 17612 17614 17616 1 180.0000771 15.1670000 2
17612 17614 17616 17617 1 180.0000771 15.1670000 2
17612 17614 17616 17618 1 180.0000771 15.1670000 2
17615 17614 17616 17617 1 180.0000771 15.1670000 2
17615 17614 17616 17618 1 180.0000771 15.1670000 2
17612 17616 17614 17615 4 180.0000771 4.6024000 2
17614 17616 17618 17619 1 180.0000771 15.1670000 2
17614 17616 17618 17620 1 180.0000771 15.1670000 2
17617 17616 17618 17619 1 180.0000771 15.1670000 2
17617 17616 17618 17620 1 180.0000771 15.1670000 2
17614 17618 17616 17617 4 180.0000771 4.6024000 2
17611 17618 17620 17621 4 180.0000771 4.6024000 2
17616 17618 17620 17621 1 180.0000771 15.1670000 2
17619 17618 17620 17621 1 180.0000771 15.1670000 2
17611 17620 17618 17616 1 180.0000771 15.1670000 2
17611 17620 17618 17619 1 180.0000771 15.1670000 2
17616 17620 17618 17619 4 180.0000771 4.6024000 2
17624 17625 17626 17627 1 180.0000771 15.1670000 2
17624 17625 17626 17628 1 180.0000771 15.1670000 2
17627 17625 17626 17628 4 180.0000771 4.6024000 2
17624 17625 17634 17626 4 180.0000771 4.6024000 2
17624 17625 17634 17632 1 180.0000771 15.1670000 2
17624 17625 17634 17635 1 180.0000771 15.1670000 2
17626 17625 17634 17632 1 180.0000771 15.1670000 2
17626 17625 17634 17635 1 180.0000771 15.1670000 2
17627 17626 17625 17634 1 180.0000771 15.1670000 2
17628 17626 17625 17634 1 180.0000771 15.1670000 2
17625 17626 17628 17629 1 180.0000771 15.1670000 2
17625 17626 17628 17630 1 180.0000771 15.1670000 2
17627 17626 17628 17629 1 180.0000771 15.1670000 2
17627 17626 17628 17630 1 180.0000771 15.1670000 2
17626 17628 17630 17631 1 180.0000771 15.1670000 2
17626 17628 17630 17632 1 180.0000771 15.1670000 2
17629 17628 17630 17631 1 180.0000771 15.1670000 2
17629 17628 17630 17632 1 180.0000771 15.1670000 2
17626 17630 17628 17629 4 180.0000771 4.6024000 2
17628 17630 17632 17633 1 180.0000771 15.1670000 2
17628 17630 17632 17634 1 180.0000771 15.1670000 2
17631 17630 17632 17633 1 180.0000771 15.1670000 2
17631 17630 17632 17634 1 180.0000771 15.1670000 2
17628 17632 17630 17631 4 180.0000771 4.6024000 2
17625 17632 17634 17635 4 180.0000771 4.6024000 2
17630 17632 17634 17635 1 180.0000771 15.1670000 2
17633 17632 17634 17635 1 180.0000771 15.1670000 2
17625 17634 17632 17630 1 180.0000771 15.1670000 2
17625 17634 17632 17633 1 180.0000771 15.1670000 2
17630 17634 17632 17633 4 180.0000771 4.6024000 2
17638 17639 17640 17641 1 180.0000771 15.1670000 2
17638 17639 17640 17642 1 180.0000771 15.1670000 2
17641 17639 17640 17642 4 180.0000771 4.6024000 2
17638 17639 17648 17640 4 180.0000771 4.6024000 2
17638 17639 17648 17646 1 180.0000771 15.1670000 2
17638 17639 17648 17649 1 180.0000771 15.1670000 2
17640 17639 17648 17646 1 180.0000771 15.1670000 2
17640 17639 17648 17649 1 180.0000771 15.1670000 2
17641 17640 17639 17648 1 180.0000771 15.1670000 2
17642 17640 17639 17648 1 180.0000771 15.1670000 2
17639 17640 17642 17643 1 180.0000771 15.1670000 2
17639 17640 17642 17644 1 180.0000771 15.1670000 2
17641 17640 17642 17643 1 180.0000771 15.1670000 2
17641 17640 17642 17644 1 180.0000771 15.1670000 2
17640 17642 17644 17645 1 180.0000771 15.1670000 2
17640 17642 17644 17646 1 180.0000771 15.1670000 2
17643 17642 17644 17645 1 180.0000771 15.1670000 2
17643 17642 17644 17646 1 180.0000771 15.1670000 2
17640 17644 17642 17643 4 180.0000771 4.6024000 2
17642 17644 17646 17647 1 180.0000771 15.1670000 2
17642 17644 17646 17648 1 180.0000771 15.1670000 2
17645 17644 17646 17647 1 180.0000771 15.1670000 2
17645 17644 17646 17648 1 180.0000771 15.1670000 2
17642 17646 17644 17645 4 180.0000771 4.6024000 2
17639 17646 17648 17649 4 180.0000771 4.6024000 2
17644 17646 17648 17649 1 180.0000771 15.1670000 2
17647 17646 17648 17649 1 180.0000771 15.1670000 2
17639 17648 17646 17644 1 180.0000771 15.1670000 2
17639 17648 17646 17647 1 180.0000771 15.1670000 2
17644 17648 17646 17647 4 180.0000771 4.6024000 2
17652 17653 17654 17655 1 180.0000771 15.1670000 2
17652 17653 17654 17656 1 180.0000771 15.1670000 2
17655 17653 17654 17656 4 180.0000771 4.6024000 2
17652 17653 17662 17654 4 180.0000771 4.6024000 2
17652 17653 17662 17660 1 180.0000771 15.1670000 2
17652 17653 17662 17663 1 180.0000771 15.1670000 2
17654 17653 17662 17660 1 180.0000771 15.1670000 2
17654 17653 17662 17663 1 180.0000771 15.1670000 2
17655 17654 17653 17662 1 180.0000771 15.1670000 2
17656 17654 17653 17662 1 180.0000771 15.1670000 2
17653 17654 17656 17657 1 180.0000771 15.1670000 2
17653 17654 17656 17658 1 180.0000771 15.1670000 2
17655 17654 17656 17657 1 180.0000771 15.1670000 2
17655 17654 17656 17658 1 180.0000771 15.1670000 2
17654 17656 17658 17659 1 180.0000771 15.1670000 2
17654 17656 17658 17660 1 180.0000771 15.1670000 2
17657 17656 17658 17659 1 180.0000771 15.1670000 2
17657 17656 17658 17660 1 180.0000771 15.1670000 2
17654 17658 17656 17657 4 180.0000771 4.6024000 2
17656 17658 17660 17661 1 180.0000771 15.1670000 2
17656 17658 17660 17662 1 180.0000771 15.1670000 2
17659 17658 17660 17661 1 180.0000771 15.1670000 2
17659 17658 17660 17662 1 180.0000771 15.1670000 2
17656 17660 17658 17659 4 180.0000771 4.6024000 2
17653 17660 17662 17663 4 180.0000771 4.6024000 2
17658 17660 17662 17663 1 180.0000771 15.1670000 2
17661 17660 17662 17663 1 180.0000771 15.1670000 2
17653 17662 17660 17658 1 180.0000771 15.1670000 2
17653 17662 17660 17661 1 180.0000771 15.1670000 2
17658 17662 17660 17661 4 180.0000771 4.6024000 2
17666 17667 17668 17669 1 180.0000771 15.1670000 2
17666 17667 17668 17670 1 180.0000771 15.1670000 2
17669 17667 17668 17670 4 180.0000771 4.6024000 2
17666 17667 17676 17668 4 180.0000771 4.6024000 2
17666 17667 17676 17674 1 180.0000771 15.1670000 2
17666 17667 17676 17677 1 180.0000771 15.1670000 2
17668 17667 17676 17674 1 180.0000771 15.1670000 2
17668 17667 17676 17677 1 180.0000771 15.1670000 2
17669 17668 17667 17676 1 180.0000771 15.1670000 2
17670 17668 17667 17676 1 180.0000771 15.1670000 2
17667 17668 17670 17671 1 180.0000771 15.1670000 2
17667 17668 17670 17672 1 180.0000771 15.1670000 2
17669 17668 17670 17671 1 180.0000771 15.1670000 2
17669 17668 17670 17672 1 180.0000771 15.1670000 2
17668 17670 17672 17673 1 180.0000771 15.1670000 2
17668 17670 17672 17674 1 180.0000771 15.1670000 2
17671 17670 17672 17673 1 180.0000771 15.1670000 2
17671 17670 17672 17674 1 180.0000771 15.1670000 2
17668 17672 17670 17671 4 180.0000771 4.6024000 2
17670 17672 17674 17675 1 180.0000771 15.1670000 2
17670 17672 17674 17676 1 180.0000771 15.1670000 2
17673 17672 17674 17675 1 180.0000771 15.1670000 2
17673 17672 17674 17676 1 180.0000771 15.1670000 2
17670 17674 17672 17673 4 180.0000771 4.6024000 2
17667 17674 17676 17677 4 180.0000771 4.6024000 2
17672 17674 17676 17677 1 180.0000771 15.1670000 2
17675 17674 17676 17677 1 180.0000771 15.1670000 2
17667 17676 17674 17672 1 180.0000771 15.1670000 2
17667 17676 17674 17675 1 180.0000771 15.1670000 2
17672 17676 17674 17675 4 180.0000771 4.6024000 2
17680 17681 17682 17683 1 180.0000771 15.1670000 2
17680 17681 17682 17684 1 180.0000771 15.1670000 2
17683 17681 17682 17684 4 180.0000771 4.6024000 2
17680 17681 17690 17682 4 180.0000771 4.6024000 2
17680 17681 17690 17688 1 180.0000771 15.1670000 2
17680 17681 17690 17691 1 180.0000771 15.1670000 2
17682 17681 17690 17688 1 180.0000771 15.1670000 2
17682 17681 17690 17691 1 180.0000771 15.1670000 2
17683 17682 17681 17690 1 180.0000771 15.1670000 2
17684 17682 17681 17690 1 180.0000771 15.1670000 2
17681 17682 17684 17685 1 180.0000771 15.1670000 2
17681 17682 17684 17686 1 180.0000771 15.1670000 2
17683 17682 17684 17685 1 180.0000771 15.1670000 2
17683 17682 17684 17686 1 180.0000771 15.1670000 2
17682 17684 17686 17687 1 180.0000771 15.1670000 2
17682 17684 17686 17688 1 180.0000771 15.1670000 2
17685 17684 17686 17687 1 180.0000771 15.1670000 2
17685 17684 17686 17688 1 180.0000771 15.1670000 2
17682 17686 17684 17685 4 180.0000771 4.6024000 2
17684 17686 17688 17689 1 180.0000771 15.1670000 2
17684 17686 17688 17690 1 180.0000771 15.1670000 2
17687 17686 17688 17689 1 180.0000771 15.1670000 2
17687 17686 17688 17690 1 180.0000771 15.1670000 2
17684 17688 17686 17687 4 180.0000771 4.6024000 2
17681 17688 17690 17691 4 180.0000771 4.6024000 2
17686 17688 17690 17691 1 180.0000771 15.1670000 2
17689 17688 17690 17691 1 180.0000771 15.1670000 2
17681 17690 17688 17686 1 180.0000771 15.1670000 2
17681 17690 17688 17689 1 180.0000771 15.1670000 2
17686 17690 17688 17689 4 180.0000771 4.6024000 2
17694 17695 17696 17697 1 180.0000771 15.1670000 2
17694 17695 17696 17698 1 180.0000771 15.1670000 2
17697 17695 17696 17698 4 180.0000771 4.6024000 2
17694 17695 17704 17696 4 180.0000771 4.6024000 2
17694 17695 17704 17702 1 180.0000771 15.1670000 2
17694 17695 17704 17705 1 180.0000771 15.1670000 2
17696 17695 17704 17702 1 180.0000771 15.1670000 2
17696 17695 17704 17705 1 180.0000771 15.1670000 2
17697 17696 17695 17704 1 180.0000771 15.1670000 2
17698 17696 17695 17704 1 180.0000771 15.1670000 2
17695 17696 17698 17699 1 180.0000771 15.1670000 2
17695 17696 17698 17700 1 180.0000771 15.1670000 2
17697 17696 17698 17699 1 180.0000771 15.1670000 2
17697 17696 17698 17700 1 180.0000771 15.1670000 2
17696 17698 17700 17701 1 180.0000771 15.1670000 2
17696 17698 17700 17702 1 180.0000771 15.1670000 2
17699 17698 17700 17701 1 180.0000771 15.1670000 2
17699 17698 17700 17702 1 180.0000771 15.1670000 2
17696 17700 17698 17699 4 180.0000771 4.6024000 2
17698 17700 17702 17703 1 180.0000771 15.1670000 2
17698 17700 17702 17704 1 180.0000771 15.1670000 2
17701 17700 17702 17703 1 180.0000771 15.1670000 2
17701 17700 17702 17704 1 180.0000771 15.1670000 2
17698 17702 17700 17701 4 180.0000771 4.6024000 2
17695 17702 17704 17705 4 180.0000771 4.6024000 2
17700 17702 17704 17705 1 180.0000771 15.1670000 2
17703 17702 17704 17705 1 180.0000771 15.1670000 2
17695 17704 17702 17700 1 180.0000771 15.1670000 2
17695 17704 17702 17703 1 180.0000771 15.1670000 2
17700 17704 17702 17703 4 180.0000771 4.6024000 2
17708 17709 17710 17711 1 180.0000771 15.1670000 2
17708 17709 17710 17712 1 180.0000771 15.1670000 2
17711 17709 17710 17712 4 180.0000771 4.6024000 2
17708 17709 17718 17710 4 180.0000771 4.6024000 2
17708 17709 17718 17716 1 180.0000771 15.1670000 2
17708 17709 17718 17719 1 180.0000771 15.1670000 2
17710 17709 17718 17716 1 180.0000771 15.1670000 2
17710 17709 17718 17719 1 180.0000771 15.1670000 2
17711 17710 17709 17718 1 180.0000771 15.1670000 2
17712 17710 17709 17718 1 180.0000771 15.1670000 2
17709 17710 17712 17713 1 180.0000771 15.1670000 2
17709 17710 17712 17714 1 180.0000771 15.1670000 2
17711 17710 17712 17713 1 180.0000771 15.1670000 2
17711 17710 17712 17714 1 180.0000771 15.1670000 2
17710 17712 17714 17715 1 180.0000771 15.1670000 2
17710 17712 17714 17716 1 180.0000771 15.1670000 2
17713 17712 17714 17715 1 180.0000771 15.1670000 2
17713 17712 17714 17716 1 180.0000771 15.1670000 2
17710 17714 17712 17713 4 180.0000771 4.6024000 2
17712 17714 17716 17717 1 180.0000771 15.1670000 2
17712 17714 17716 17718 1 180.0000771 15.1670000 2
17715 17714 17716 17717 1 180.0000771 15.1670000 2
17715 17714 17716 17718 1 180.0000771 15.1670000 2
17712 17716 17714 17715 4 180.0000771 4.6024000 2
17709 17716 17718 17719 4 180.0000771 4.6024000 2
17714 17716 17718 17719 1 180.0000771 15.1670000 2
17717 17716 17718 17719 1 180.0000771 15.1670000 2
17709 17718 17716 17714 1 180.0000771 15.1670000 2
17709 17718 17716 17717 1 180.0000771 15.1670000 2
17714 17718 17716 17717 4 180.0000771 4.6024000 2
17722 17723 17724 17725 1 180.0000771 15.1670000 2
17722 17723 17724 17726 1 180.0000771 15.1670000 2
17725 17723 17724 17726 4 180.0000771 4.6024000 2
17722 17723 17732 17724 4 180.0000771 4.6024000 2
17722 17723 17732 17730 1 180.0000771 15.1670000 2
17722 17723 17732 17733 1 180.0000771 15.1670000 2
17724 17723 17732 17730 1 180.0000771 15.1670000 2
17724 17723 17732 17733 1 180.0000771 15.1670000 2
17725 17724 17723 17732 1 180.0000771 15.1670000 2
17726 17724 17723 17732 1 180.0000771 15.1670000 2
17723 17724 17726 17727 1 180.0000771 15.1670000 2
17723 17724 17726 17728 1 180.0000771 15.1670000 2
17725 17724 17726 17727 1 180.0000771 15.1670000 2
17725 17724 17726 17728 1 180.0000771 15.1670000 2
17724 17726 17728 17729 1 180.0000771 15.1670000 2
17724 17726 17728 17730 1 180.0000771 15.1670000 2
17727 17726 17728 17729 1 180.0000771 15.1670000 2
17727 17726 17728 17730 1 180.0000771 15.1670000 2
17724 17728 17726 17727 4 180.0000771 4.6024000 2
17726 17728 17730 17731 1 180.0000771 15.1670000 2
17726 17728 17730 17732 1 180.0000771 15.1670000 2
17729 17728 17730 17731 1 180.0000771 15.1670000 2
17729 17728 17730 17732 1 180.0000771 15.1670000 2
17726 17730 17728 17729 4 180.0000771 4.6024000 2
17723 17730 17732 17733 4 180.0000771 4.6024000 2
17728 17730 17732 17733 1 180.0000771 15.1670000 2
17731 17730 17732 17733 1 180.0000771 15.1670000 2
17723 17732 17730 17728 1 180.0000771 15.1670000 2
17723 17732 17730 17731 1 180.0000771 15.1670000 2
17728 17732 17730 17731 4 180.0000771 4.6024000 2
17736 17737 17738 17739 1 180.0000771 15.1670000 2
17736 17737 17738 17740 1 180.0000771 15.1670000 2
17739 17737 17738 17740 4 180.0000771 4.6024000 2
17736 17737 17746 17738 4 180.0000771 4.6024000 2
17736 17737 17746 17744 1 180.0000771 15.1670000 2
17736 17737 17746 17747 1 180.0000771 15.1670000 2
17738 17737 17746 17744 1 180.0000771 15.1670000 2
17738 17737 17746 17747 1 180.0000771 15.1670000 2
17739 17738 17737 17746 1 180.0000771 15.1670000 2
17740 17738 17737 17746 1 180.0000771 15.1670000 2
17737 17738 17740 17741 1 180.0000771 15.1670000 2
17737 17738 17740 17742 1 180.0000771 15.1670000 2
17739 17738 17740 17741 1 180.0000771 15.1670000 2
17739 17738 17740 17742 1 180.0000771 15.1670000 2
17738 17740 17742 17743 1 180.0000771 15.1670000 2
17738 17740 17742 17744 1 180.0000771 15.1670000 2
17741 17740 17742 17743 1 180.0000771 15.1670000 2
17741 17740 17742 17744 1 180.0000771 15.1670000 2
17738 17742 17740 17741 4 180.0000771 4.6024000 2
17740 17742 17744 17745 1 180.0000771 15.1670000 2
17740 17742 17744 17746 1 180.0000771 15.1670000 2
17743 17742 17744 17745 1 180.0000771 15.1670000 2
17743 17742 17744 17746 1 180.0000771 15.1670000 2
17740 17744 17742 17743 4 180.0000771 4.6024000 2
17737 17744 17746 17747 4 180.0000771 4.6024000 2
17742 17744 17746 17747 1 180.0000771 15.1670000 2
17745 17744 17746 17747 1 180.0000771 15.1670000 2
17737 17746 17744 17742 1 180.0000771 15.1670000 2
17737 17746 17744 17745 1 180.0000771 15.1670000 2
17742 17746 17744 17745 4 180.0000771 4.6024000 2
17750 17751 17752 17753 1 180.0000771 15.1670000 2
17750 17751 17752 17754 1 180.0000771 15.1670000 2
17753 17751 17752 17754 4 180.0000771 4.6024000 2
17750 17751 17760 17752 4 180.0000771 4.6024000 2
17750 17751 17760 17758 1 180.0000771 15.1670000 2
17750 17751 17760 17761 1 180.0000771 15.1670000 2
17752 17751 17760 17758 1 180.0000771 15.1670000 2
17752 17751 17760 17761 1 180.0000771 15.1670000 2
17753 17752 17751 17760 1 180.0000771 15.1670000 2
17754 17752 17751 17760 1 180.0000771 15.1670000 2
17751 17752 17754 17755 1 180.0000771 15.1670000 2
17751 17752 17754 17756 1 180.0000771 15.1670000 2
17753 17752 17754 17755 1 180.0000771 15.1670000 2
17753 17752 17754 17756 1 180.0000771 15.1670000 2
17752 17754 17756 17757 1 180.0000771 15.1670000 2
17752 17754 17756 17758 1 180.0000771 15.1670000 2
17755 17754 17756 17757 1 180.0000771 15.1670000 2
17755 17754 17756 17758 1 180.0000771 15.1670000 2
17752 17756 17754 17755 4 180.0000771 4.6024000 2
17754 17756 17758 17759 1 180.0000771 15.1670000 2
17754 17756 17758 17760 1 180.0000771 15.1670000 2
17757 17756 17758 17759 1 180.0000771 15.1670000 2
17757 17756 17758 17760 1 180.0000771 15.1670000 2
17754 17758 17756 17757 4 180.0000771 4.6024000 2
17751 17758 17760 17761 4 180.0000771 4.6024000 2
17756 17758 17760 17761 1 180.0000771 15.1670000 2
17759 17758 17760 17761 1 180.0000771 15.1670000 2
17751 17760 17758 17756 1 180.0000771 15.1670000 2
17751 17760 17758 17759 1 180.0000771 15.1670000 2
17756 17760 17758 17759 4 180.0000771 4.6024000 2
17764 17765 17766 17767 1 180.0000771 15.1670000 2
17764 17765 17766 17768 1 180.0000771 15.1670000 2
17767 17765 17766 17768 4 180.0000771 4.6024000 2
17764 17765 17774 17766 4 180.0000771 4.6024000 2
17764 17765 17774 17772 1 180.0000771 15.1670000 2
17764 17765 17774 17775 1 180.0000771 15.1670000 2
17766 17765 17774 17772 1 180.0000771 15.1670000 2
17766 17765 17774 17775 1 180.0000771 15.1670000 2
17767 17766 17765 17774 1 180.0000771 15.1670000 2
17768 17766 17765 17774 1 180.0000771 15.1670000 2
17765 17766 17768 17769 1 180.0000771 15.1670000 2
17765 17766 17768 17770 1 180.0000771 15.1670000 2
17767 17766 17768 17769 1 180.0000771 15.1670000 2
17767 17766 17768 17770 1 180.0000771 15.1670000 2
17766 17768 17770 17771 1 180.0000771 15.1670000 2
17766 17768 17770 17772 1 180.0000771 15.1670000 2
17769 17768 17770 17771 1 180.0000771 15.1670000 2
17769 17768 17770 17772 1 180.0000771 15.1670000 2
17766 17770 17768 17769 4 180.0000771 4.6024000 2
17768 17770 17772 17773 1 180.0000771 15.1670000 2
17768 17770 17772 17774 1 180.0000771 15.1670000 2
17771 17770 17772 17773 1 180.0000771 15.1670000 2
17771 17770 17772 17774 1 180.0000771 15.1670000 2
17768 17772 17770 17771 4 180.0000771 4.6024000 2
17765 17772 17774 17775 4 180.0000771 4.6024000 2
17770 17772 17774 17775 1 180.0000771 15.1670000 2
17773 17772 17774 17775 1 180.0000771 15.1670000 2
17765 17774 17772 17770 1 180.0000771 15.1670000 2
17765 17774 17772 17773 1 180.0000771 15.1670000 2
17770 17774 17772 17773 4 180.0000771 4.6024000 2
17778 17779 17780 17781 1 180.0000771 15.1670000 2
17778 17779 17780 17782 1 180.0000771 15.1670000 2
17781 17779 17780 17782 4 180.0000771 4.6024000 2
17778 17779 17788 17780 4 180.0000771 4.6024000 2
17778 17779 17788 17786 1 180.0000771 15.1670000 2
17778 17779 17788 17789 1 180.0000771 15.1670000 2
17780 17779 17788 17786 1 180.0000771 15.1670000 2
17780 17779 17788 17789 1 180.0000771 15.1670000 2
17781 17780 17779 17788 1 180.0000771 15.1670000 2
17782 17780 17779 17788 1 180.0000771 15.1670000 2
17779 17780 17782 17783 1 180.0000771 15.1670000 2
17779 17780 17782 17784 1 180.0000771 15.1670000 2
17781 17780 17782 17783 1 180.0000771 15.1670000 2
17781 17780 17782 17784 1 180.0000771 15.1670000 2
17780 17782 17784 17785 1 180.0000771 15.1670000 2
17780 17782 17784 17786 1 180.0000771 15.1670000 2
17783 17782 17784 17785 1 180.0000771 15.1670000 2
17783 17782 17784 17786 1 180.0000771 15.1670000 2
17780 17784 17782 17783 4 180.0000771 4.6024000 2
17782 17784 17786 17787 1 180.0000771 15.1670000 2
17782 17784 17786 17788 1 180.0000771 15.1670000 2
17785 17784 17786 17787 1 180.0000771 15.1670000 2
17785 17784 17786 17788 1 180.0000771 15.1670000 2
17782 17786 17784 17785 4 180.0000771 4.6024000 2
17779 17786 17788 17789 4 180.0000771 4.6024000 2
17784 17786 17788 17789 1 180.0000771 15.1670000 2
17787 17786 17788 17789 1 180.0000771 15.1670000 2
17779 17788 17786 17784 1 180.0000771 15.1670000 2
17779 17788 17786 17787 1 180.0000771 15.1670000 2
17784 17788 17786 17787 4 180.0000771 4.6024000 2
17792 17793 17794 17795 1 180.0000771 15.1670000 2
17792 17793 17794 17796 1 180.0000771 15.1670000 2
17795 17793 17794 17796 4 180.0000771 4.6024000 2
17792 17793 17802 17794 4 180.0000771 4.6024000 2
17792 17793 17802 17800 1 180.0000771 15.1670000 2
17792 17793 17802 17803 1 180.0000771 15.1670000 2
17794 17793 17802 17800 1 180.0000771 15.1670000 2
17794 17793 17802 17803 1 180.0000771 15.1670000 2
17795 17794 17793 17802 1 180.0000771 15.1670000 2
17796 17794 17793 17802 1 180.0000771 15.1670000 2
17793 17794 17796 17797 1 180.0000771 15.1670000 2
17793 17794 17796 17798 1 180.0000771 15.1670000 2
17795 17794 17796 17797 1 180.0000771 15.1670000 2
17795 17794 17796 17798 1 180.0000771 15.1670000 2
17794 17796 17798 17799 1 180.0000771 15.1670000 2
17794 17796 17798 17800 1 180.0000771 15.1670000 2
17797 17796 17798 17799 1 180.0000771 15.1670000 2
17797 17796 17798 17800 1 180.0000771 15.1670000 2
17794 17798 17796 17797 4 180.0000771 4.6024000 2
17796 17798 17800 17801 1 180.0000771 15.1670000 2
17796 17798 17800 17802 1 180.0000771 15.1670000 2
17799 17798 17800 17801 1 180.0000771 15.1670000 2
17799 17798 17800 17802 1 180.0000771 15.1670000 2
17796 17800 17798 17799 4 180.0000771 4.6024000 2
17793 17800 17802 17803 4 180.0000771 4.6024000 2
17798 17800 17802 17803 1 180.0000771 15.1670000 2
17801 17800 17802 17803 1 180.0000771 15.1670000 2
17793 17802 17800 17798 1 180.0000771 15.1670000 2
17793 17802 17800 17801 1 180.0000771 15.1670000 2
17798 17802 17800 17801 4 180.0000771 4.6024000 2
17806 17807 17808 17809 1 180.0000771 15.1670000 2
17806 17807 17808 17810 1 180.0000771 15.1670000 2
17809 17807 17808 17810 4 180.0000771 4.6024000 2
17806 17807 17816 17808 4 180.0000771 4.6024000 2
17806 17807 17816 17814 1 180.0000771 15.1670000 2
17806 17807 17816 17817 1 180.0000771 15.1670000 2
17808 17807 17816 17814 1 180.0000771 15.1670000 2
17808 17807 17816 17817 1 180.0000771 15.1670000 2
17809 17808 17807 17816 1 180.0000771 15.1670000 2
17810 17808 17807 17816 1 180.0000771 15.1670000 2
17807 17808 17810 17811 1 180.0000771 15.1670000 2
17807 17808 17810 17812 1 180.0000771 15.1670000 2
17809 17808 17810 17811 1 180.0000771 15.1670000 2
17809 17808 17810 17812 1 180.0000771 15.1670000 2
17808 17810 17812 17813 1 180.0000771 15.1670000 2
17808 17810 17812 17814 1 180.0000771 15.1670000 2
17811 17810 17812 17813 1 180.0000771 15.1670000 2
17811 17810 17812 17814 1 180.0000771 15.1670000 2
17808 17812 17810 17811 4 180.0000771 4.6024000 2
17810 17812 17814 17815 1 180.0000771 15.1670000 2
17810 17812 17814 17816 1 180.0000771 15.1670000 2
17813 17812 17814 17815 1 180.0000771 15.1670000 2
17813 17812 17814 17816 1 180.0000771 15.1670000 2
17810 17814 17812 17813 4 180.0000771 4.6024000 2
17807 17814 17816 17817 4 180.0000771 4.6024000 2
17812 17814 17816 17817 1 180.0000771 15.1670000 2
17815 17814 17816 17817 1 180.0000771 15.1670000 2
17807 17816 17814 17812 1 180.0000771 15.1670000 2
17807 17816 17814 17815 1 180.0000771 15.1670000 2
17812 17816 17814 17815 4 180.0000771 4.6024000 2
17820 17821 17822 17823 1 180.0000771 15.1670000 2
17820 17821 17822 17824 1 180.0000771 15.1670000 2
17823 17821 17822 17824 4 180.0000771 4.6024000 2
17820 17821 17830 17822 4 180.0000771 4.6024000 2
17820 17821 17830 17828 1 180.0000771 15.1670000 2
17820 17821 17830 17831 1 180.0000771 15.1670000 2
17822 17821 17830 17828 1 180.0000771 15.1670000 2
17822 17821 17830 17831 1 180.0000771 15.1670000 2
17823 17822 17821 17830 1 180.0000771 15.1670000 2
17824 17822 17821 17830 1 180.0000771 15.1670000 2
17821 17822 17824 17825 1 180.0000771 15.1670000 2
17821 17822 17824 17826 1 180.0000771 15.1670000 2
17823 17822 17824 17825 1 180.0000771 15.1670000 2
17823 17822 17824 17826 1 180.0000771 15.1670000 2
17822 17824 17826 17827 1 180.0000771 15.1670000 2
17822 17824 17826 17828 1 180.0000771 15.1670000 2
17825 17824 17826 17827 1 180.0000771 15.1670000 2
17825 17824 17826 17828 1 180.0000771 15.1670000 2
17822 17826 17824 17825 4 180.0000771 4.6024000 2
17824 17826 17828 17829 1 180.0000771 15.1670000 2
17824 17826 17828 17830 1 180.0000771 15.1670000 2
17827 17826 17828 17829 1 180.0000771 15.1670000 2
17827 17826 17828 17830 1 180.0000771 15.1670000 2
17824 17828 17826 17827 4 180.0000771 4.6024000 2
17821 17828 17830 17831 4 180.0000771 4.6024000 2
17826 17828 17830 17831 1 180.0000771 15.1670000 2
17829 17828 17830 17831 1 180.0000771 15.1670000 2
17821 17830 17828 17826 1 180.0000771 15.1670000 2
17821 17830 17828 17829 1 180.0000771 15.1670000 2
17826 17830 17828 17829 4 180.0000771 4.6024000 2
17834 17835 17836 17837 1 180.0000771 15.1670000 2
17834 17835 17836 17838 1 180.0000771 15.1670000 2
17837 17835 17836 17838 4 180.0000771 4.6024000 2
17834 17835 17844 17836 4 180.0000771 4.6024000 2
17834 17835 17844 17842 1 180.0000771 15.1670000 2
17834 17835 17844 17845 1 180.0000771 15.1670000 2
17836 17835 17844 17842 1 180.0000771 15.1670000 2
17836 17835 17844 17845 1 180.0000771 15.1670000 2
17837 17836 17835 17844 1 180.0000771 15.1670000 2
17838 17836 17835 17844 1 180.0000771 15.1670000 2
17835 17836 17838 17839 1 180.0000771 15.1670000 2
17835 17836 17838 17840 1 180.0000771 15.1670000 2
17837 17836 17838 17839 1 180.0000771 15.1670000 2
17837 17836 17838 17840 1 180.0000771 15.1670000 2
17836 17838 17840 17841 1 180.0000771 15.1670000 2
17836 17838 17840 17842 1 180.0000771 15.1670000 2
17839 17838 17840 17841 1 180.0000771 15.1670000 2
17839 17838 17840 17842 1 180.0000771 15.1670000 2
17836 17840 17838 17839 4 180.0000771 4.6024000 2
17838 17840 17842 17843 1 180.0000771 15.1670000 2
17838 17840 17842 17844 1 180.0000771 15.1670000 2
17841 17840 17842 17843 1 180.0000771 15.1670000 2
17841 17840 17842 17844 1 180.0000771 15.1670000 2
17838 17842 17840 17841 4 180.0000771 4.6024000 2
17835 17842 17844 17845 4 180.0000771 4.6024000 2
17840 17842 17844 17845 1 180.0000771 15.1670000 2
17843 17842 17844 17845 1 180.0000771 15.1670000 2
17835 17844 17842 17840 1 180.0000771 15.1670000 2
17835 17844 17842 17843 1 180.0000771 15.1670000 2
17840 17844 17842 17843 4 180.0000771 4.6024000 2
17848 17849 17850 17851 1 180.0000771 15.1670000 2
17848 17849 17850 17852 1 180.0000771 15.1670000 2
17851 17849 17850 17852 4 180.0000771 4.6024000 2
17848 17849 17858 17850 4 180.0000771 4.6024000 2
17848 17849 17858 17856 1 180.0000771 15.1670000 2
17848 17849 17858 17859 1 180.0000771 15.1670000 2
17850 17849 17858 17856 1 180.0000771 15.1670000 2
17850 17849 17858 17859 1 180.0000771 15.1670000 2
17851 17850 17849 17858 1 180.0000771 15.1670000 2
17852 17850 17849 17858 1 180.0000771 15.1670000 2
17849 17850 17852 17853 1 180.0000771 15.1670000 2
17849 17850 17852 17854 1 180.0000771 15.1670000 2
17851 17850 17852 17853 1 180.0000771 15.1670000 2
17851 17850 17852 17854 1 180.0000771 15.1670000 2
17850 17852 17854 17855 1 180.0000771 15.1670000 2
17850 17852 17854 17856 1 180.0000771 15.1670000 2
17853 17852 17854 17855 1 180.0000771 15.1670000 2
17853 17852 17854 17856 1 180.0000771 15.1670000 2
17850 17854 17852 17853 4 180.0000771 4.6024000 2
17852 17854 17856 17857 1 180.0000771 15.1670000 2
17852 17854 17856 17858 1 180.0000771 15.1670000 2
17855 17854 17856 17857 1 180.0000771 15.1670000 2
17855 17854 17856 17858 1 180.0000771 15.1670000 2
17852 17856 17854 17855 4 180.0000771 4.6024000 2
17849 17856 17858 17859 4 180.0000771 4.6024000 2
17854 17856 17858 17859 1 180.0000771 15.1670000 2
17857 17856 17858 17859 1 180.0000771 15.1670000 2
17849 17858 17856 17854 1 180.0000771 15.1670000 2
17849 17858 17856 17857 1 180.0000771 15.1670000 2
17854 17858 17856 17857 4 180.0000771 4.6024000 2
17862 17863 17864 17865 1 180.0000771 15.1670000 2
17862 17863 17864 17866 1 180.0000771 15.1670000 2
17865 17863 17864 17866 4 180.0000771 4.6024000 2
17862 17863 17872 17864 4 180.0000771 4.6024000 2
17862 17863 17872 17870 1 180.0000771 15.1670000 2
17862 17863 17872 17873 1 180.0000771 15.1670000 2
17864 17863 17872 17870 1 180.0000771 15.1670000 2
17864 17863 17872 17873 1 180.0000771 15.1670000 2
17865 17864 17863 17872 1 180.0000771 15.1670000 2
17866 17864 17863 17872 1 180.0000771 15.1670000 2
17863 17864 17866 17867 1 180.0000771 15.1670000 2
17863 17864 17866 17868 1 180.0000771 15.1670000 2
17865 17864 17866 17867 1 180.0000771 15.1670000 2
17865 17864 17866 17868 1 180.0000771 15.1670000 2
17864 17866 17868 17869 1 180.0000771 15.1670000 2
17864 17866 17868 17870 1 180.0000771 15.1670000 2
17867 17866 17868 17869 1 180.0000771 15.1670000 2
17867 17866 17868 17870 1 180.0000771 15.1670000 2
17864 17868 17866 17867 4 180.0000771 4.6024000 2
17866 17868 17870 17871 1 180.0000771 15.1670000 2
17866 17868 17870 17872 1 180.0000771 15.1670000 2
17869 17868 17870 17871 1 180.0000771 15.1670000 2
17869 17868 17870 17872 1 180.0000771 15.1670000 2
17866 17870 17868 17869 4 180.0000771 4.6024000 2
17863 17870 17872 17873 4 180.0000771 4.6024000 2
17868 17870 17872 17873 1 180.0000771 15.1670000 2
17871 17870 17872 17873 1 180.0000771 15.1670000 2
17863 17872 17870 17868 1 180.0000771 15.1670000 2
17863 17872 17870 17871 1 180.0000771 15.1670000 2
17868 17872 17870 17871 4 180.0000771 4.6024000 2
17876 17877 17878 17879 1 180.0000771 15.1670000 2
17876 17877 17878 17880 1 180.0000771 15.1670000 2
17879 17877 17878 17880 4 180.0000771 4.6024000 2
17876 17877 17886 17878 4 180.0000771 4.6024000 2
17876 17877 17886 17884 1 180.0000771 15.1670000 2
17876 17877 17886 17887 1 180.0000771 15.1670000 2
17878 17877 17886 17884 1 180.0000771 15.1670000 2
17878 17877 17886 17887 1 180.0000771 15.1670000 2
17879 17878 17877 17886 1 180.0000771 15.1670000 2
17880 17878 17877 17886 1 180.0000771 15.1670000 2
17877 17878 17880 17881 1 180.0000771 15.1670000 2
17877 17878 17880 17882 1 180.0000771 15.1670000 2
17879 17878 17880 17881 1 180.0000771 15.1670000 2
17879 17878 17880 17882 1 180.0000771 15.1670000 2
17878 17880 17882 17883 1 180.0000771 15.1670000 2
17878 17880 17882 17884 1 180.0000771 15.1670000 2
17881 17880 17882 17883 1 180.0000771 15.1670000 2
17881 17880 17882 17884 1 180.0000771 15.1670000 2
17878 17882 17880 17881 4 180.0000771 4.6024000 2
17880 17882 17884 17885 1 180.0000771 15.1670000 2
17880 17882 17884 17886 1 180.0000771 15.1670000 2
17883 17882 17884 17885 1 180.0000771 15.1670000 2
17883 17882 17884 17886 1 180.0000771 15.1670000 2
17880 17884 17882 17883 4 180.0000771 4.6024000 2
17877 17884 17886 17887 4 180.0000771 4.6024000 2
17882 17884 17886 17887 1 180.0000771 15.1670000 2
17885 17884 17886 17887 1 180.0000771 15.1670000 2
17877 17886 17884 17882 1 180.0000771 15.1670000 2
17877 17886 17884 17885 1 180.0000771 15.1670000 2
17882 17886 17884 17885 4 180.0000771 4.6024000 2
17890 17891 17892 17893 1 180.0000771 15.1670000 2
17890 17891 17892 17894 1 180.0000771 15.1670000 2
17893 17891 17892 17894 4 180.0000771 4.6024000 2
17890 17891 17900 17892 4 180.0000771 4.6024000 2
17890 17891 17900 17898 1 180.0000771 15.1670000 2
17890 17891 17900 17901 1 180.0000771 15.1670000 2
17892 17891 17900 17898 1 180.0000771 15.1670000 2
17892 17891 17900 17901 1 180.0000771 15.1670000 2
17893 17892 17891 17900 1 180.0000771 15.1670000 2
17894 17892 17891 17900 1 180.0000771 15.1670000 2
17891 17892 17894 17895 1 180.0000771 15.1670000 2
17891 17892 17894 17896 1 180.0000771 15.1670000 2
17893 17892 17894 17895 1 180.0000771 15.1670000 2
17893 17892 17894 17896 1 180.0000771 15.1670000 2
17892 17894 17896 17897 1 180.0000771 15.1670000 2
17892 17894 17896 17898 1 180.0000771 15.1670000 2
17895 17894 17896 17897 1 180.0000771 15.1670000 2
17895 17894 17896 17898 1 180.0000771 15.1670000 2
17892 17896 17894 17895 4 180.0000771 4.6024000 2
17894 17896 17898 17899 1 180.0000771 15.1670000 2
17894 17896 17898 17900 1 180.0000771 15.1670000 2
17897 17896 17898 17899 1 180.0000771 15.1670000 2
17897 17896 17898 17900 1 180.0000771 15.1670000 2
17894 17898 17896 17897 4 180.0000771 4.6024000 2
17891 17898 17900 17901 4 180.0000771 4.6024000 2
17896 17898 17900 17901 1 180.0000771 15.1670000 2
17899 17898 17900 17901 1 180.0000771 15.1670000 2
17891 17900 17898 17896 1 180.0000771 15.1670000 2
17891 17900 17898 17899 1 180.0000771 15.1670000 2
17896 17900 17898 17899 4 180.0000771 4.6024000 2
17904 17905 17906 17907 1 180.0000771 15.1670000 2
17904 17905 17906 17908 1 180.0000771 15.1670000 2
17907 17905 17906 17908 4 180.0000771 4.6024000 2
17904 17905 17914 17906 4 180.0000771 4.6024000 2
17904 17905 17914 17912 1 180.0000771 15.1670000 2
17904 17905 17914 17915 1 180.0000771 15.1670000 2
17906 17905 17914 17912 1 180.0000771 15.1670000 2
17906 17905 17914 17915 1 180.0000771 15.1670000 2
17907 17906 17905 17914 1 180.0000771 15.1670000 2
17908 17906 17905 17914 1 180.0000771 15.1670000 2
17905 17906 17908 17909 1 180.0000771 15.1670000 2
17905 17906 17908 17910 1 180.0000771 15.1670000 2
17907 17906 17908 17909 1 180.0000771 15.1670000 2
17907 17906 17908 17910 1 180.0000771 15.1670000 2
17906 17908 17910 17911 1 180.0000771 15.1670000 2
17906 17908 17910 17912 1 180.0000771 15.1670000 2
17909 17908 17910 17911 1 180.0000771 15.1670000 2
17909 17908 17910 17912 1 180.0000771 15.1670000 2
17906 17910 17908 17909 4 180.0000771 4.6024000 2
17908 17910 17912 17913 1 180.0000771 15.1670000 2
17908 17910 17912 17914 1 180.0000771 15.1670000 2
17911 17910 17912 17913 1 180.0000771 15.1670000 2
17911 17910 17912 17914 1 180.0000771 15.1670000 2
17908 17912 17910 17911 4 180.0000771 4.6024000 2
17905 17912 17914 17915 4 180.0000771 4.6024000 2
17910 17912 17914 17915 1 180.0000771 15.1670000 2
17913 17912 17914 17915 1 180.0000771 15.1670000 2
17905 17914 17912 17910 1 180.0000771 15.1670000 2
17905 17914 17912 17913 1 180.0000771 15.1670000 2
17910 17914 17912 17913 4 180.0000771 4.6024000 2
17918 17919 17920 17921 1 180.0000771 15.1670000 2
17918 17919 17920 17922 1 180.0000771 15.1670000 2
17921 17919 17920 17922 4 180.0000771 4.6024000 2
17918 17919 17928 17920 4 180.0000771 4.6024000 2
17918 17919 17928 17926 1 180.0000771 15.1670000 2
17918 17919 17928 17929 1 180.0000771 15.1670000 2
17920 17919 17928 17926 1 180.0000771 15.1670000 2
17920 17919 17928 17929 1 180.0000771 15.1670000 2
17921 17920 17919 17928 1 180.0000771 15.1670000 2
17922 17920 17919 17928 1 180.0000771 15.1670000 2
17919 17920 17922 17923 1 180.0000771 15.1670000 2
17919 17920 17922 17924 1 180.0000771 15.1670000 2
17921 17920 17922 17923 1 180.0000771 15.1670000 2
17921 17920 17922 17924 1 180.0000771 15.1670000 2
17920 17922 17924 17925 1 180.0000771 15.1670000 2
17920 17922 17924 17926 1 180.0000771 15.1670000 2
17923 17922 17924 17925 1 180.0000771 15.1670000 2
17923 17922 17924 17926 1 180.0000771 15.1670000 2
17920 17924 17922 17923 4 180.0000771 4.6024000 2
17922 17924 17926 17927 1 180.0000771 15.1670000 2
17922 17924 17926 17928 1 180.0000771 15.1670000 2
17925 17924 17926 17927 1 180.0000771 15.1670000 2
17925 17924 17926 17928 1 180.0000771 15.1670000 2
17922 17926 17924 17925 4 180.0000771 4.6024000 2
17919 17926 17928 17929 4 180.0000771 4.6024000 2
17924 17926 17928 17929 1 180.0000771 15.1670000 2
17927 17926 17928 17929 1 180.0000771 15.1670000 2
17919 17928 17926 17924 1 180.0000771 15.1670000 2
17919 17928 17926 17927 1 180.0000771 15.1670000 2
17924 17928 17926 17927 4 180.0000771 4.6024000 2
17932 17933 17934 17935 1 180.0000771 15.1670000 2
17932 17933 17934 17936 1 180.0000771 15.1670000 2
17935 17933 17934 17936 4 180.0000771 4.6024000 2
17932 17933 17942 17934 4 180.0000771 4.6024000 2
17932 17933 17942 17940 1 180.0000771 15.1670000 2
17932 17933 17942 17943 1 180.0000771 15.1670000 2
17934 17933 17942 17940 1 180.0000771 15.1670000 2
17934 17933 17942 17943 1 180.0000771 15.1670000 2
17935 17934 17933 17942 1 180.0000771 15.1670000 2
17936 17934 17933 17942 1 180.0000771 15.1670000 2
17933 17934 17936 17937 1 180.0000771 15.1670000 2
17933 17934 17936 17938 1 180.0000771 15.1670000 2
17935 17934 17936 17937 1 180.0000771 15.1670000 2
17935 17934 17936 17938 1 180.0000771 15.1670000 2
17934 17936 17938 17939 1 180.0000771 15.1670000 2
17934 17936 17938 17940 1 180.0000771 15.1670000 2
17937 17936 17938 17939 1 180.0000771 15.1670000 2
17937 17936 17938 17940 1 180.0000771 15.1670000 2
17934 17938 17936 17937 4 180.0000771 4.6024000 2
17936 17938 17940 17941 1 180.0000771 15.1670000 2
17936 17938 17940 17942 1 180.0000771 15.1670000 2
17939 17938 17940 17941 1 180.0000771 15.1670000 2
17939 17938 17940 17942 1 180.0000771 15.1670000 2
17936 17940 17938 17939 4 180.0000771 4.6024000 2
17933 17940 17942 17943 4 180.0000771 4.6024000 2
17938 17940 17942 17943 1 180.0000771 15.1670000 2
17941 17940 17942 17943 1 180.0000771 15.1670000 2
17933 17942 17940 17938 1 180.0000771 15.1670000 2
17933 17942 17940 17941 1 180.0000771 15.1670000 2
17938 17942 17940 17941 4 180.0000771 4.6024000 2
17946 17947 17948 17949 1 180.0000771 15.1670000 2
17946 17947 17948 17950 1 180.0000771 15.1670000 2
17949 17947 17948 17950 4 180.0000771 4.6024000 2
17946 17947 17956 17948 4 180.0000771 4.6024000 2
17946 17947 17956 17954 1 180.0000771 15.1670000 2
17946 17947 17956 17957 1 180.0000771 15.1670000 2
17948 17947 17956 17954 1 180.0000771 15.1670000 2
17948 17947 17956 17957 1 180.0000771 15.1670000 2
17949 17948 17947 17956 1 180.0000771 15.1670000 2
17950 17948 17947 17956 1 180.0000771 15.1670000 2
17947 17948 17950 17951 1 180.0000771 15.1670000 2
17947 17948 17950 17952 1 180.0000771 15.1670000 2
17949 17948 17950 17951 1 180.0000771 15.1670000 2
17949 17948 17950 17952 1 180.0000771 15.1670000 2
17948 17950 17952 17953 1 180.0000771 15.1670000 2
17948 17950 17952 17954 1 180.0000771 15.1670000 2
17951 17950 17952 17953 1 180.0000771 15.1670000 2
17951 17950 17952 17954 1 180.0000771 15.1670000 2
17948 17952 17950 17951 4 180.0000771 4.6024000 2
17950 17952 17954 17955 1 180.0000771 15.1670000 2
17950 17952 17954 17956 1 180.0000771 15.1670000 2
17953 17952 17954 17955 1 180.0000771 15.1670000 2
17953 17952 17954 17956 1 180.0000771 15.1670000 2
17950 17954 17952 17953 4 180.0000771 4.6024000 2
17947 17954 17956 17957 4 180.0000771 4.6024000 2
17952 17954 17956 17957 1 180.0000771 15.1670000 2
17955 17954 17956 17957 1 180.0000771 15.1670000 2
17947 17956 17954 17952 1 180.0000771 15.1670000 2
17947 17956 17954 17955 1 180.0000771 15.1670000 2
17952 17956 17954 17955 4 180.0000771 4.6024000 2
17960 17961 17962 17963 1 180.0000771 15.1670000 2
17960 17961 17962 17964 1 180.0000771 15.1670000 2
17963 17961 17962 17964 4 180.0000771 4.6024000 2
17960 17961 17970 17962 4 180.0000771 4.6024000 2
17960 17961 17970 17968 1 180.0000771 15.1670000 2
17960 17961 17970 17971 1 180.0000771 15.1670000 2
17962 17961 17970 17968 1 180.0000771 15.1670000 2
17962 17961 17970 17971 1 180.0000771 15.1670000 2
17963 17962 17961 17970 1 180.0000771 15.1670000 2
17964 17962 17961 17970 1 180.0000771 15.1670000 2
17961 17962 17964 17965 1 180.0000771 15.1670000 2
17961 17962 17964 17966 1 180.0000771 15.1670000 2
17963 17962 17964 17965 1 180.0000771 15.1670000 2
17963 17962 17964 17966 1 180.0000771 15.1670000 2
17962 17964 17966 17967 1 180.0000771 15.1670000 2
17962 17964 17966 17968 1 180.0000771 15.1670000 2
17965 17964 17966 17967 1 180.0000771 15.1670000 2
17965 17964 17966 17968 1 180.0000771 15.1670000 2
17962 17966 17964 17965 4 180.0000771 4.6024000 2
17964 17966 17968 17969 1 180.0000771 15.1670000 2
17964 17966 17968 17970 1 180.0000771 15.1670000 2
17967 17966 17968 17969 1 180.0000771 15.1670000 2
17967 17966 17968 17970 1 180.0000771 15.1670000 2
17964 17968 17966 17967 4 180.0000771 4.6024000 2
17961 17968 17970 17971 4 180.0000771 4.6024000 2
17966 17968 17970 17971 1 180.0000771 15.1670000 2
17969 17968 17970 17971 1 180.0000771 15.1670000 2
17961 17970 17968 17966 1 180.0000771 15.1670000 2
17961 17970 17968 17969 1 180.0000771 15.1670000 2
17966 17970 17968 17969 4 180.0000771 4.6024000 2
17974 17975 17976 17977 1 180.0000771 15.1670000 2
17974 17975 17976 17978 1 180.0000771 15.1670000 2
17977 17975 17976 17978 4 180.0000771 4.6024000 2
17974 17975 17984 17976 4 180.0000771 4.6024000 2
17974 17975 17984 17982 1 180.0000771 15.1670000 2
17974 17975 17984 17985 1 180.0000771 15.1670000 2
17976 17975 17984 17982 1 180.0000771 15.1670000 2
17976 17975 17984 17985 1 180.0000771 15.1670000 2
17977 17976 17975 17984 1 180.0000771 15.1670000 2
17978 17976 17975 17984 1 180.0000771 15.1670000 2
17975 17976 17978 17979 1 180.0000771 15.1670000 2
17975 17976 17978 17980 1 180.0000771 15.1670000 2
17977 17976 17978 17979 1 180.0000771 15.1670000 2
17977 17976 17978 17980 1 180.0000771 15.1670000 2
17976 17978 17980 17981 1 180.0000771 15.1670000 2
17976 17978 17980 17982 1 180.0000771 15.1670000 2
17979 17978 17980 17981 1 180.0000771 15.1670000 2
17979 17978 17980 17982 1 180.0000771 15.1670000 2
17976 17980 17978 17979 4 180.0000771 4.6024000 2
17978 17980 17982 17983 1 180.0000771 15.1670000 2
17978 17980 17982 17984 1 180.0000771 15.1670000 2
17981 17980 17982 17983 1 180.0000771 15.1670000 2
17981 17980 17982 17984 1 180.0000771 15.1670000 2
17978 17982 17980 17981 4 180.0000771 4.6024000 2
17975 17982 17984 17985 4 180.0000771 4.6024000 2
17980 17982 17984 17985 1 180.0000771 15.1670000 2
17983 17982 17984 17985 1 180.0000771 15.1670000 2
17975 17984 17982 17980 1 180.0000771 15.1670000 2
17975 17984 17982 17983 1 180.0000771 15.1670000 2
17980 17984 17982 17983 4 180.0000771 4.6024000 2
17988 17989 17990 17991 1 180.0000771 15.1670000 2
17988 17989 17990 17992 1 180.0000771 15.1670000 2
17991 17989 17990 17992 4 180.0000771 4.6024000 2
17988 17989 17998 17990 4 180.0000771 4.6024000 2
17988 17989 17998 17996 1 180.0000771 15.1670000 2
17988 17989 17998 17999 1 180.0000771 15.1670000 2
17990 17989 17998 17996 1 180.0000771 15.1670000 2
17990 17989 17998 17999 1 180.0000771 15.1670000 2
17991 17990 17989 17998 1 180.0000771 15.1670000 2
17992 17990 17989 17998 1 180.0000771 15.1670000 2
17989 17990 17992 17993 1 180.0000771 15.1670000 2
17989 17990 17992 17994 1 180.0000771 15.1670000 2
17991 17990 17992 17993 1 180.0000771 15.1670000 2
17991 17990 17992 17994 1 180.0000771 15.1670000 2
17990 17992 17994 17995 1 180.0000771 15.1670000 2
17990 17992 17994 17996 1 180.0000771 15.1670000 2
17993 17992 17994 17995 1 180.0000771 15.1670000 2
17993 17992 17994 17996 1 180.0000771 15.1670000 2
17990 17994 17992 17993 4 180.0000771 4.6024000 2
17992 17994 17996 17997 1 180.0000771 15.1670000 2
17992 17994 17996 17998 1 180.0000771 15.1670000 2
17995 17994 17996 17997 1 180.0000771 15.1670000 2
17995 17994 17996 17998 1 180.0000771 15.1670000 2
17992 17996 17994 17995 4 180.0000771 4.6024000 2
17989 17996 17998 17999 4 180.0000771 4.6024000 2
17994 17996 17998 17999 1 180.0000771 15.1670000 2
17997 17996 17998 17999 1 180.0000771 15.1670000 2
17989 17998 17996 17994 1 180.0000771 15.1670000 2
17989 17998 17996 17997 1 180.0000771 15.1670000 2
17994 17998 17996 17997 4 180.0000771 4.6024000 2
18002 18003 18004 18005 1 180.0000771 15.1670000 2
18002 18003 18004 18006 1 180.0000771 15.1670000 2
18005 18003 18004 18006 4 180.0000771 4.6024000 2
18002 18003 18012 18004 4 180.0000771 4.6024000 2
18002 18003 18012 18010 1 180.0000771 15.1670000 2
18002 18003 18012 18013 1 180.0000771 15.1670000 2
18004 18003 18012 18010 1 180.0000771 15.1670000 2
18004 18003 18012 18013 1 180.0000771 15.1670000 2
18005 18004 18003 18012 1 180.0000771 15.1670000 2
18006 18004 18003 18012 1 180.0000771 15.1670000 2
18003 18004 18006 18007 1 180.0000771 15.1670000 2
18003 18004 18006 18008 1 180.0000771 15.1670000 2
18005 18004 18006 18007 1 180.0000771 15.1670000 2
18005 18004 18006 18008 1 180.0000771 15.1670000 2
18004 18006 18008 18009 1 180.0000771 15.1670000 2
18004 18006 18008 18010 1 180.0000771 15.1670000 2
18007 18006 18008 18009 1 180.0000771 15.1670000 2
18007 18006 18008 18010 1 180.0000771 15.1670000 2
18004 18008 18006 18007 4 180.0000771 4.6024000 2
18006 18008 18010 18011 1 180.0000771 15.1670000 2
18006 18008 18010 18012 1 180.0000771 15.1670000 2
18009 18008 18010 18011 1 180.0000771 15.1670000 2
18009 18008 18010 18012 1 180.0000771 15.1670000 2
18006 18010 18008 18009 4 180.0000771 4.6024000 2
18003 18010 18012 18013 4 180.0000771 4.6024000 2
18008 18010 18012 18013 1 180.0000771 15.1670000 2
18011 18010 18012 18013 1 180.0000771 15.1670000 2
18003 18012 18010 18008 1 180.0000771 15.1670000 2
18003 18012 18010 18011 1 180.0000771 15.1670000 2
18008 18012 18010 18011 4 180.0000771 4.6024000 2
18016 18017 18018 18019 1 180.0000771 15.1670000 2
18016 18017 18018 18020 1 180.0000771 15.1670000 2
18019 18017 18018 18020 4 180.0000771 4.6024000 2
18016 18017 18026 18018 4 180.0000771 4.6024000 2
18016 18017 18026 18024 1 180.0000771 15.1670000 2
18016 18017 18026 18027 1 180.0000771 15.1670000 2
18018 18017 18026 18024 1 180.0000771 15.1670000 2
18018 18017 18026 18027 1 180.0000771 15.1670000 2
18019 18018 18017 18026 1 180.0000771 15.1670000 2
18020 18018 18017 18026 1 180.0000771 15.1670000 2
18017 18018 18020 18021 1 180.0000771 15.1670000 2
18017 18018 18020 18022 1 180.0000771 15.1670000 2
18019 18018 18020 18021 1 180.0000771 15.1670000 2
18019 18018 18020 18022 1 180.0000771 15.1670000 2
18018 18020 18022 18023 1 180.0000771 15.1670000 2
18018 18020 18022 18024 1 180.0000771 15.1670000 2
18021 18020 18022 18023 1 180.0000771 15.1670000 2
18021 18020 18022 18024 1 180.0000771 15.1670000 2
18018 18022 18020 18021 4 180.0000771 4.6024000 2
18020 18022 18024 18025 1 180.0000771 15.1670000 2
18020 18022 18024 18026 1 180.0000771 15.1670000 2
18023 18022 18024 18025 1 180.0000771 15.1670000 2
18023 18022 18024 18026 1 180.0000771 15.1670000 2
18020 18024 18022 18023 4 180.0000771 4.6024000 2
18017 18024 18026 18027 4 180.0000771 4.6024000 2
18022 18024 18026 18027 1 180.0000771 15.1670000 2
18025 18024 18026 18027 1 180.0000771 15.1670000 2
18017 18026 18024 18022 1 180.0000771 15.1670000 2
18017 18026 18024 18025 1 180.0000771 15.1670000 2
18022 18026 18024 18025 4 180.0000771 4.6024000 2
18030 18031 18032 18033 1 180.0000771 15.1670000 2
18030 18031 18032 18034 1 180.0000771 15.1670000 2
18033 18031 18032 18034 4 180.0000771 4.6024000 2
18030 18031 18040 18032 4 180.0000771 4.6024000 2
18030 18031 18040 18038 1 180.0000771 15.1670000 2
18030 18031 18040 18041 1 180.0000771 15.1670000 2
18032 18031 18040 18038 1 180.0000771 15.1670000 2
18032 18031 18040 18041 1 180.0000771 15.1670000 2
18033 18032 18031 18040 1 180.0000771 15.1670000 2
18034 18032 18031 18040 1 180.0000771 15.1670000 2
18031 18032 18034 18035 1 180.0000771 15.1670000 2
18031 18032 18034 18036 1 180.0000771 15.1670000 2
18033 18032 18034 18035 1 180.0000771 15.1670000 2
18033 18032 18034 18036 1 180.0000771 15.1670000 2
18032 18034 18036 18037 1 180.0000771 15.1670000 2
18032 18034 18036 18038 1 180.0000771 15.1670000 2
18035 18034 18036 18037 1 180.0000771 15.1670000 2
18035 18034 18036 18038 1 180.0000771 15.1670000 2
18032 18036 18034 18035 4 180.0000771 4.6024000 2
18034 18036 18038 18039 1 180.0000771 15.1670000 2
18034 18036 18038 18040 1 180.0000771 15.1670000 2
18037 18036 18038 18039 1 180.0000771 15.1670000 2
18037 18036 18038 18040 1 180.0000771 15.1670000 2
18034 18038 18036 18037 4 180.0000771 4.6024000 2
18031 18038 18040 18041 4 180.0000771 4.6024000 2
18036 18038 18040 18041 1 180.0000771 15.1670000 2
18039 18038 18040 18041 1 180.0000771 15.1670000 2
18031 18040 18038 18036 1 180.0000771 15.1670000 2
18031 18040 18038 18039 1 180.0000771 15.1670000 2
18036 18040 18038 18039 4 180.0000771 4.6024000 2
18044 18045 18046 18047 1 180.0000771 15.1670000 2
18044 18045 18046 18048 1 180.0000771 15.1670000 2
18047 18045 18046 18048 4 180.0000771 4.6024000 2
18044 18045 18054 18046 4 180.0000771 4.6024000 2
18044 18045 18054 18052 1 180.0000771 15.1670000 2
18044 18045 18054 18055 1 180.0000771 15.1670000 2
18046 18045 18054 18052 1 180.0000771 15.1670000 2
18046 18045 18054 18055 1 180.0000771 15.1670000 2
18047 18046 18045 18054 1 180.0000771 15.1670000 2
18048 18046 18045 18054 1 180.0000771 15.1670000 2
18045 18046 18048 18049 1 180.0000771 15.1670000 2
18045 18046 18048 18050 1 180.0000771 15.1670000 2
18047 18046 18048 18049 1 180.0000771 15.1670000 2
18047 18046 18048 18050 1 180.0000771 15.1670000 2
18046 18048 18050 18051 1 180.0000771 15.1670000 2
18046 18048 18050 18052 1 180.0000771 15.1670000 2
18049 18048 18050 18051 1 180.0000771 15.1670000 2
18049 18048 18050 18052 1 180.0000771 15.1670000 2
18046 18050 18048 18049 4 180.0000771 4.6024000 2
18048 18050 18052 18053 1 180.0000771 15.1670000 2
18048 18050 18052 18054 1 180.0000771 15.1670000 2
18051 18050 18052 18053 1 180.0000771 15.1670000 2
18051 18050 18052 18054 1 180.0000771 15.1670000 2
18048 18052 18050 18051 4 180.0000771 4.6024000 2
18045 18052 18054 18055 4 180.0000771 4.6024000 2
18050 18052 18054 18055 1 180.0000771 15.1670000 2
18053 18052 18054 18055 1 180.0000771 15.1670000 2
18045 18054 18052 18050 1 180.0000771 15.1670000 2
18045 18054 18052 18053 1 180.0000771 15.1670000 2
18050 18054 18052 18053 4 180.0000771 4.6024000 2
18058 18059 18060 18061 1 180.0000771 15.1670000 2
18058 18059 18060 18062 1 180.0000771 15.1670000 2
18061 18059 18060 18062 4 180.0000771 4.6024000 2
18058 18059 18068 18060 4 180.0000771 4.6024000 2
18058 18059 18068 18066 1 180.0000771 15.1670000 2
18058 18059 18068 18069 1 180.0000771 15.1670000 2
18060 18059 18068 18066 1 180.0000771 15.1670000 2
18060 18059 18068 18069 1 180.0000771 15.1670000 2
18061 18060 18059 18068 1 180.0000771 15.1670000 2
18062 18060 18059 18068 1 180.0000771 15.1670000 2
18059 18060 18062 18063 1 180.0000771 15.1670000 2
18059 18060 18062 18064 1 180.0000771 15.1670000 2
18061 18060 18062 18063 1 180.0000771 15.1670000 2
18061 18060 18062 18064 1 180.0000771 15.1670000 2
18060 18062 18064 18065 1 180.0000771 15.1670000 2
18060 18062 18064 18066 1 180.0000771 15.1670000 2
18063 18062 18064 18065 1 180.0000771 15.1670000 2
18063 18062 18064 18066 1 180.0000771 15.1670000 2
18060 18064 18062 18063 4 180.0000771 4.6024000 2
18062 18064 18066 18067 1 180.0000771 15.1670000 2
18062 18064 18066 18068 1 180.0000771 15.1670000 2
18065 18064 18066 18067 1 180.0000771 15.1670000 2
18065 18064 18066 18068 1 180.0000771 15.1670000 2
18062 18066 18064 18065 4 180.0000771 4.6024000 2
18059 18066 18068 18069 4 180.0000771 4.6024000 2
18064 18066 18068 18069 1 180.0000771 15.1670000 2
18067 18066 18068 18069 1 180.0000771 15.1670000 2
18059 18068 18066 18064 1 180.0000771 15.1670000 2
18059 18068 18066 18067 1 180.0000771 15.1670000 2
18064 18068 18066 18067 4 180.0000771 4.6024000 2
18072 18073 18074 18075 1 180.0000771 15.1670000 2
18072 18073 18074 18076 1 180.0000771 15.1670000 2
18075 18073 18074 18076 4 180.0000771 4.6024000 2
18072 18073 18082 18074 4 180.0000771 4.6024000 2
18072 18073 18082 18080 1 180.0000771 15.1670000 2
18072 18073 18082 18083 1 180.0000771 15.1670000 2
18074 18073 18082 18080 1 180.0000771 15.1670000 2
18074 18073 18082 18083 1 180.0000771 15.1670000 2
18075 18074 18073 18082 1 180.0000771 15.1670000 2
18076 18074 18073 18082 1 180.0000771 15.1670000 2
18073 18074 18076 18077 1 180.0000771 15.1670000 2
18073 18074 18076 18078 1 180.0000771 15.1670000 2
18075 18074 18076 18077 1 180.0000771 15.1670000 2
18075 18074 18076 18078 1 180.0000771 15.1670000 2
18074 18076 18078 18079 1 180.0000771 15.1670000 2
18074 18076 18078 18080 1 180.0000771 15.1670000 2
18077 18076 18078 18079 1 180.0000771 15.1670000 2
18077 18076 18078 18080 1 180.0000771 15.1670000 2
18074 18078 18076 18077 4 180.0000771 4.6024000 2
18076 18078 18080 18081 1 180.0000771 15.1670000 2
18076 18078 18080 18082 1 180.0000771 15.1670000 2
18079 18078 18080 18081 1 180.0000771 15.1670000 2
18079 18078 18080 18082 1 180.0000771 15.1670000 2
18076 18080 18078 18079 4 180.0000771 4.6024000 2
18073 18080 18082 18083 4 180.0000771 4.6024000 2
18078 18080 18082 18083 1 180.0000771 15.1670000 2
18081 18080 18082 18083 1 180.0000771 15.1670000 2
18073 18082 18080 18078 1 180.0000771 15.1670000 2
18073 18082 18080 18081 1 180.0000771 15.1670000 2
18078 18082 18080 18081 4 180.0000771 4.6024000 2
18086 18087 18088 18089 1 180.0000771 15.1670000 2
18086 18087 18088 18090 1 180.0000771 15.1670000 2
18089 18087 18088 18090 4 180.0000771 4.6024000 2
18086 18087 18096 18088 4 180.0000771 4.6024000 2
18086 18087 18096 18094 1 180.0000771 15.1670000 2
18086 18087 18096 18097 1 180.0000771 15.1670000 2
18088 18087 18096 18094 1 180.0000771 15.1670000 2
18088 18087 18096 18097 1 180.0000771 15.1670000 2
18089 18088 18087 18096 1 180.0000771 15.1670000 2
18090 18088 18087 18096 1 180.0000771 15.1670000 2
18087 18088 18090 18091 1 180.0000771 15.1670000 2
18087 18088 18090 18092 1 180.0000771 15.1670000 2
18089 18088 18090 18091 1 180.0000771 15.1670000 2
18089 18088 18090 18092 1 180.0000771 15.1670000 2
18088 18090 18092 18093 1 180.0000771 15.1670000 2
18088 18090 18092 18094 1 180.0000771 15.1670000 2
18091 18090 18092 18093 1 180.0000771 15.1670000 2
18091 18090 18092 18094 1 180.0000771 15.1670000 2
18088 18092 18090 18091 4 180.0000771 4.6024000 2
18090 18092 18094 18095 1 180.0000771 15.1670000 2
18090 18092 18094 18096 1 180.0000771 15.1670000 2
18093 18092 18094 18095 1 180.0000771 15.1670000 2
18093 18092 18094 18096 1 180.0000771 15.1670000 2
18090 18094 18092 18093 4 180.0000771 4.6024000 2
18087 18094 18096 18097 4 180.0000771 4.6024000 2
18092 18094 18096 18097 1 180.0000771 15.1670000 2
18095 18094 18096 18097 1 180.0000771 15.1670000 2
18087 18096 18094 18092 1 180.0000771 15.1670000 2
18087 18096 18094 18095 1 180.0000771 15.1670000 2
18092 18096 18094 18095 4 180.0000771 4.6024000 2
18100 18101 18102 18103 1 180.0000771 15.1670000 2
18100 18101 18102 18104 1 180.0000771 15.1670000 2
18103 18101 18102 18104 4 180.0000771 4.6024000 2
18100 18101 18110 18102 4 180.0000771 4.6024000 2
18100 18101 18110 18108 1 180.0000771 15.1670000 2
18100 18101 18110 18111 1 180.0000771 15.1670000 2
18102 18101 18110 18108 1 180.0000771 15.1670000 2
18102 18101 18110 18111 1 180.0000771 15.1670000 2
18103 18102 18101 18110 1 180.0000771 15.1670000 2
18104 18102 18101 18110 1 180.0000771 15.1670000 2
18101 18102 18104 18105 1 180.0000771 15.1670000 2
18101 18102 18104 18106 1 180.0000771 15.1670000 2
18103 18102 18104 18105 1 180.0000771 15.1670000 2
18103 18102 18104 18106 1 180.0000771 15.1670000 2
18102 18104 18106 18107 1 180.0000771 15.1670000 2
18102 18104 18106 18108 1 180.0000771 15.1670000 2
18105 18104 18106 18107 1 180.0000771 15.1670000 2
18105 18104 18106 18108 1 180.0000771 15.1670000 2
18102 18106 18104 18105 4 180.0000771 4.6024000 2
18104 18106 18108 18109 1 180.0000771 15.1670000 2
18104 18106 18108 18110 1 180.0000771 15.1670000 2
18107 18106 18108 18109 1 180.0000771 15.1670000 2
18107 18106 18108 18110 1 180.0000771 15.1670000 2
18104 18108 18106 18107 4 180.0000771 4.6024000 2
18101 18108 18110 18111 4 180.0000771 4.6024000 2
18106 18108 18110 18111 1 180.0000771 15.1670000 2
18109 18108 18110 18111 1 180.0000771 15.1670000 2
18101 18110 18108 18106 1 180.0000771 15.1670000 2
18101 18110 18108 18109 1 180.0000771 15.1670000 2
18106 18110 18108 18109 4 180.0000771 4.6024000 2
18114 18115 18116 18117 1 180.0000771 15.1670000 2
18114 18115 18116 18118 1 180.0000771 15.1670000 2
18117 18115 18116 18118 4 180.0000771 4.6024000 2
18114 18115 18124 18116 4 180.0000771 4.6024000 2
18114 18115 18124 18122 1 180.0000771 15.1670000 2
18114 18115 18124 18125 1 180.0000771 15.1670000 2
18116 18115 18124 18122 1 180.0000771 15.1670000 2
18116 18115 18124 18125 1 180.0000771 15.1670000 2
18117 18116 18115 18124 1 180.0000771 15.1670000 2
18118 18116 18115 18124 1 180.0000771 15.1670000 2
18115 18116 18118 18119 1 180.0000771 15.1670000 2
18115 18116 18118 18120 1 180.0000771 15.1670000 2
18117 18116 18118 18119 1 180.0000771 15.1670000 2
18117 18116 18118 18120 1 180.0000771 15.1670000 2
18116 18118 18120 18121 1 180.0000771 15.1670000 2
18116 18118 18120 18122 1 180.0000771 15.1670000 2
18119 18118 18120 18121 1 180.0000771 15.1670000 2
18119 18118 18120 18122 1 180.0000771 15.1670000 2
18116 18120 18118 18119 4 180.0000771 4.6024000 2
18118 18120 18122 18123 1 180.0000771 15.1670000 2
18118 18120 18122 18124 1 180.0000771 15.1670000 2
18121 18120 18122 18123 1 180.0000771 15.1670000 2
18121 18120 18122 18124 1 180.0000771 15.1670000 2
18118 18122 18120 18121 4 180.0000771 4.6024000 2
18115 18122 18124 18125 4 180.0000771 4.6024000 2
18120 18122 18124 18125 1 180.0000771 15.1670000 2
18123 18122 18124 18125 1 180.0000771 15.1670000 2
18115 18124 18122 18120 1 180.0000771 15.1670000 2
18115 18124 18122 18123 1 180.0000771 15.1670000 2
18120 18124 18122 18123 4 180.0000771 4.6024000 2
18128 18129 18130 18131 1 180.0000771 15.1670000 2
18128 18129 18130 18132 1 180.0000771 15.1670000 2
18131 18129 18130 18132 4 180.0000771 4.6024000 2
18128 18129 18138 18130 4 180.0000771 4.6024000 2
18128 18129 18138 18136 1 180.0000771 15.1670000 2
18128 18129 18138 18139 1 180.0000771 15.1670000 2
18130 18129 18138 18136 1 180.0000771 15.1670000 2
18130 18129 18138 18139 1 180.0000771 15.1670000 2
18131 18130 18129 18138 1 180.0000771 15.1670000 2
18132 18130 18129 18138 1 180.0000771 15.1670000 2
18129 18130 18132 18133 1 180.0000771 15.1670000 2
18129 18130 18132 18134 1 180.0000771 15.1670000 2
18131 18130 18132 18133 1 180.0000771 15.1670000 2
18131 18130 18132 18134 1 180.0000771 15.1670000 2
18130 18132 18134 18135 1 180.0000771 15.1670000 2
18130 18132 18134 18136 1 180.0000771 15.1670000 2
18133 18132 18134 18135 1 180.0000771 15.1670000 2
18133 18132 18134 18136 1 180.0000771 15.1670000 2
18130 18134 18132 18133 4 180.0000771 4.6024000 2
18132 18134 18136 18137 1 180.0000771 15.1670000 2
18132 18134 18136 18138 1 180.0000771 15.1670000 2
18135 18134 18136 18137 1 180.0000771 15.1670000 2
18135 18134 18136 18138 1 180.0000771 15.1670000 2
18132 18136 18134 18135 4 180.0000771 4.6024000 2
18129 18136 18138 18139 4 180.0000771 4.6024000 2
18134 18136 18138 18139 1 180.0000771 15.1670000 2
18137 18136 18138 18139 1 180.0000771 15.1670000 2
18129 18138 18136 18134 1 180.0000771 15.1670000 2
18129 18138 18136 18137 1 180.0000771 15.1670000 2
18134 18138 18136 18137 4 180.0000771 4.6024000 2
18142 18143 18144 18145 1 180.0000771 15.1670000 2
18142 18143 18144 18146 1 180.0000771 15.1670000 2
18145 18143 18144 18146 4 180.0000771 4.6024000 2
18142 18143 18152 18144 4 180.0000771 4.6024000 2
18142 18143 18152 18150 1 180.0000771 15.1670000 2
18142 18143 18152 18153 1 180.0000771 15.1670000 2
18144 18143 18152 18150 1 180.0000771 15.1670000 2
18144 18143 18152 18153 1 180.0000771 15.1670000 2
18145 18144 18143 18152 1 180.0000771 15.1670000 2
18146 18144 18143 18152 1 180.0000771 15.1670000 2
18143 18144 18146 18147 1 180.0000771 15.1670000 2
18143 18144 18146 18148 1 180.0000771 15.1670000 2
18145 18144 18146 18147 1 180.0000771 15.1670000 2
18145 18144 18146 18148 1 180.0000771 15.1670000 2
18144 18146 18148 18149 1 180.0000771 15.1670000 2
18144 18146 18148 18150 1 180.0000771 15.1670000 2
18147 18146 18148 18149 1 180.0000771 15.1670000 2
18147 18146 18148 18150 1 180.0000771 15.1670000 2
18144 18148 18146 18147 4 180.0000771 4.6024000 2
18146 18148 18150 18151 1 180.0000771 15.1670000 2
18146 18148 18150 18152 1 180.0000771 15.1670000 2
18149 18148 18150 18151 1 180.0000771 15.1670000 2
18149 18148 18150 18152 1 180.0000771 15.1670000 2
18146 18150 18148 18149 4 180.0000771 4.6024000 2
18143 18150 18152 18153 4 180.0000771 4.6024000 2
18148 18150 18152 18153 1 180.0000771 15.1670000 2
18151 18150 18152 18153 1 180.0000771 15.1670000 2
18143 18152 18150 18148 1 180.0000771 15.1670000 2
18143 18152 18150 18151 1 180.0000771 15.1670000 2
18148 18152 18150 18151 4 180.0000771 4.6024000 2
18156 18157 18158 18159 1 180.0000771 15.1670000 2
18156 18157 18158 18160 1 180.0000771 15.1670000 2
18159 18157 18158 18160 4 180.0000771 4.6024000 2
18156 18157 18166 18158 4 180.0000771 4.6024000 2
18156 18157 18166 18164 1 180.0000771 15.1670000 2
18156 18157 18166 18167 1 180.0000771 15.1670000 2
18158 18157 18166 18164 1 180.0000771 15.1670000 2
18158 18157 18166 18167 1 180.0000771 15.1670000 2
18159 18158 18157 18166 1 180.0000771 15.1670000 2
18160 18158 18157 18166 1 180.0000771 15.1670000 2
18157 18158 18160 18161 1 180.0000771 15.1670000 2
18157 18158 18160 18162 1 180.0000771 15.1670000 2
18159 18158 18160 18161 1 180.0000771 15.1670000 2
18159 18158 18160 18162 1 180.0000771 15.1670000 2
18158 18160 18162 18163 1 180.0000771 15.1670000 2
18158 18160 18162 18164 1 180.0000771 15.1670000 2
18161 18160 18162 18163 1 180.0000771 15.1670000 2
18161 18160 18162 18164 1 180.0000771 15.1670000 2
18158 18162 18160 18161 4 180.0000771 4.6024000 2
18160 18162 18164 18165 1 180.0000771 15.1670000 2
18160 18162 18164 18166 1 180.0000771 15.1670000 2
18163 18162 18164 18165 1 180.0000771 15.1670000 2
18163 18162 18164 18166 1 180.0000771 15.1670000 2
18160 18164 18162 18163 4 180.0000771 4.6024000 2
18157 18164 18166 18167 4 180.0000771 4.6024000 2
18162 18164 18166 18167 1 180.0000771 15.1670000 2
18165 18164 18166 18167 1 180.0000771 15.1670000 2
18157 18166 18164 18162 1 180.0000771 15.1670000 2
18157 18166 18164 18165 1 180.0000771 15.1670000 2
18162 18166 18164 18165 4 180.0000771 4.6024000 2
18170 18171 18172 18173 1 180.0000771 15.1670000 2
18170 18171 18172 18174 1 180.0000771 15.1670000 2
18173 18171 18172 18174 4 180.0000771 4.6024000 2
18170 18171 18180 18172 4 180.0000771 4.6024000 2
18170 18171 18180 18178 1 180.0000771 15.1670000 2
18170 18171 18180 18181 1 180.0000771 15.1670000 2
18172 18171 18180 18178 1 180.0000771 15.1670000 2
18172 18171 18180 18181 1 180.0000771 15.1670000 2
18173 18172 18171 18180 1 180.0000771 15.1670000 2
18174 18172 18171 18180 1 180.0000771 15.1670000 2
18171 18172 18174 18175 1 180.0000771 15.1670000 2
18171 18172 18174 18176 1 180.0000771 15.1670000 2
18173 18172 18174 18175 1 180.0000771 15.1670000 2
18173 18172 18174 18176 1 180.0000771 15.1670000 2
18172 18174 18176 18177 1 180.0000771 15.1670000 2
18172 18174 18176 18178 1 180.0000771 15.1670000 2
18175 18174 18176 18177 1 180.0000771 15.1670000 2
18175 18174 18176 18178 1 180.0000771 15.1670000 2
18172 18176 18174 18175 4 180.0000771 4.6024000 2
18174 18176 18178 18179 1 180.0000771 15.1670000 2
18174 18176 18178 18180 1 180.0000771 15.1670000 2
18177 18176 18178 18179 1 180.0000771 15.1670000 2
18177 18176 18178 18180 1 180.0000771 15.1670000 2
18174 18178 18176 18177 4 180.0000771 4.6024000 2
18171 18178 18180 18181 4 180.0000771 4.6024000 2
18176 18178 18180 18181 1 180.0000771 15.1670000 2
18179 18178 18180 18181 1 180.0000771 15.1670000 2
18171 18180 18178 18176 1 180.0000771 15.1670000 2
18171 18180 18178 18179 1 180.0000771 15.1670000 2
18176 18180 18178 18179 4 180.0000771 4.6024000 2
18184 18185 18186 18187 1 180.0000771 15.1670000 2
18184 18185 18186 18188 1 180.0000771 15.1670000 2
18187 18185 18186 18188 4 180.0000771 4.6024000 2
18184 18185 18194 18186 4 180.0000771 4.6024000 2
18184 18185 18194 18192 1 180.0000771 15.1670000 2
18184 18185 18194 18195 1 180.0000771 15.1670000 2
18186 18185 18194 18192 1 180.0000771 15.1670000 2
18186 18185 18194 18195 1 180.0000771 15.1670000 2
18187 18186 18185 18194 1 180.0000771 15.1670000 2
18188 18186 18185 18194 1 180.0000771 15.1670000 2
18185 18186 18188 18189 1 180.0000771 15.1670000 2
18185 18186 18188 18190 1 180.0000771 15.1670000 2
18187 18186 18188 18189 1 180.0000771 15.1670000 2
18187 18186 18188 18190 1 180.0000771 15.1670000 2
18186 18188 18190 18191 1 180.0000771 15.1670000 2
18186 18188 18190 18192 1 180.0000771 15.1670000 2
18189 18188 18190 18191 1 180.0000771 15.1670000 2
18189 18188 18190 18192 1 180.0000771 15.1670000 2
18186 18190 18188 18189 4 180.0000771 4.6024000 2
18188 18190 18192 18193 1 180.0000771 15.1670000 2
18188 18190 18192 18194 1 180.0000771 15.1670000 2
18191 18190 18192 18193 1 180.0000771 15.1670000 2
18191 18190 18192 18194 1 180.0000771 15.1670000 2
18188 18192 18190 18191 4 180.0000771 4.6024000 2
18185 18192 18194 18195 4 180.0000771 4.6024000 2
18190 18192 18194 18195 1 180.0000771 15.1670000 2
18193 18192 18194 18195 1 180.0000771 15.1670000 2
18185 18194 18192 18190 1 180.0000771 15.1670000 2
18185 18194 18192 18193 1 180.0000771 15.1670000 2
18190 18194 18192 18193 4 180.0000771 4.6024000 2
18198 18199 18200 18201 1 180.0000771 15.1670000 2
18198 18199 18200 18202 1 180.0000771 15.1670000 2
18201 18199 18200 18202 4 180.0000771 4.6024000 2
18198 18199 18208 18200 4 180.0000771 4.6024000 2
18198 18199 18208 18206 1 180.0000771 15.1670000 2
18198 18199 18208 18209 1 180.0000771 15.1670000 2
18200 18199 18208 18206 1 180.0000771 15.1670000 2
18200 18199 18208 18209 1 180.0000771 15.1670000 2
18201 18200 18199 18208 1 180.0000771 15.1670000 2
18202 18200 18199 18208 1 180.0000771 15.1670000 2
18199 18200 18202 18203 1 180.0000771 15.1670000 2
18199 18200 18202 18204 1 180.0000771 15.1670000 2
18201 18200 18202 18203 1 180.0000771 15.1670000 2
18201 18200 18202 18204 1 180.0000771 15.1670000 2
18200 18202 18204 18205 1 180.0000771 15.1670000 2
18200 18202 18204 18206 1 180.0000771 15.1670000 2
18203 18202 18204 18205 1 180.0000771 15.1670000 2
18203 18202 18204 18206 1 180.0000771 15.1670000 2
18200 18204 18202 18203 4 180.0000771 4.6024000 2
18202 18204 18206 18207 1 180.0000771 15.1670000 2
18202 18204 18206 18208 1 180.0000771 15.1670000 2
18205 18204 18206 18207 1 180.0000771 15.1670000 2
18205 18204 18206 18208 1 180.0000771 15.1670000 2
18202 18206 18204 18205 4 180.0000771 4.6024000 2
18199 18206 18208 18209 4 180.0000771 4.6024000 2
18204 18206 18208 18209 1 180.0000771 15.1670000 2
18207 18206 18208 18209 1 180.0000771 15.1670000 2
18199 18208 18206 18204 1 180.0000771 15.1670000 2
18199 18208 18206 18207 1 180.0000771 15.1670000 2
18204 18208 18206 18207 4 180.0000771 4.6024000 2
18212 18213 18214 18215 1 180.0000771 15.1670000 2
18212 18213 18214 18216 1 180.0000771 15.1670000 2
18215 18213 18214 18216 4 180.0000771 4.6024000 2
18212 18213 18222 18214 4 180.0000771 4.6024000 2
18212 18213 18222 18220 1 180.0000771 15.1670000 2
18212 18213 18222 18223 1 180.0000771 15.1670000 2
18214 18213 18222 18220 1 180.0000771 15.1670000 2
18214 18213 18222 18223 1 180.0000771 15.1670000 2
18215 18214 18213 18222 1 180.0000771 15.1670000 2
18216 18214 18213 18222 1 180.0000771 15.1670000 2
18213 18214 18216 18217 1 180.0000771 15.1670000 2
18213 18214 18216 18218 1 180.0000771 15.1670000 2
18215 18214 18216 18217 1 180.0000771 15.1670000 2
18215 18214 18216 18218 1 180.0000771 15.1670000 2
18214 18216 18218 18219 1 180.0000771 15.1670000 2
18214 18216 18218 18220 1 180.0000771 15.1670000 2
18217 18216 18218 18219 1 180.0000771 15.1670000 2
18217 18216 18218 18220 1 180.0000771 15.1670000 2
18214 18218 18216 18217 4 180.0000771 4.6024000 2
18216 18218 18220 18221 1 180.0000771 15.1670000 2
18216 18218 18220 18222 1 180.0000771 15.1670000 2
18219 18218 18220 18221 1 180.0000771 15.1670000 2
18219 18218 18220 18222 1 180.0000771 15.1670000 2
18216 18220 18218 18219 4 180.0000771 4.6024000 2
18213 18220 18222 18223 4 180.0000771 4.6024000 2
18218 18220 18222 18223 1 180.0000771 15.1670000 2
18221 18220 18222 18223 1 180.0000771 15.1670000 2
18213 18222 18220 18218 1 180.0000771 15.1670000 2
18213 18222 18220 18221 1 180.0000771 15.1670000 2
18218 18222 18220 18221 4 180.0000771 4.6024000 2
18226 18227 18228 18229 1 180.0000771 15.1670000 2
18226 18227 18228 18230 1 180.0000771 15.1670000 2
18229 18227 18228 18230 4 180.0000771 4.6024000 2
18226 18227 18236 18228 4 180.0000771 4.6024000 2
18226 18227 18236 18234 1 180.0000771 15.1670000 2
18226 18227 18236 18237 1 180.0000771 15.1670000 2
18228 18227 18236 18234 1 180.0000771 15.1670000 2
18228 18227 18236 18237 1 180.0000771 15.1670000 2
18229 18228 18227 18236 1 180.0000771 15.1670000 2
18230 18228 18227 18236 1 180.0000771 15.1670000 2
18227 18228 18230 18231 1 180.0000771 15.1670000 2
18227 18228 18230 18232 1 180.0000771 15.1670000 2
18229 18228 18230 18231 1 180.0000771 15.1670000 2
18229 18228 18230 18232 1 180.0000771 15.1670000 2
18228 18230 18232 18233 1 180.0000771 15.1670000 2
18228 18230 18232 18234 1 180.0000771 15.1670000 2
18231 18230 18232 18233 1 180.0000771 15.1670000 2
18231 18230 18232 18234 1 180.0000771 15.1670000 2
18228 18232 18230 18231 4 180.0000771 4.6024000 2
18230 18232 18234 18235 1 180.0000771 15.1670000 2
18230 18232 18234 18236 1 180.0000771 15.1670000 2
18233 18232 18234 18235 1 180.0000771 15.1670000 2
18233 18232 18234 18236 1 180.0000771 15.1670000 2
18230 18234 18232 18233 4 180.0000771 4.6024000 2
18227 18234 18236 18237 4 180.0000771 4.6024000 2
18232 18234 18236 18237 1 180.0000771 15.1670000 2
18235 18234 18236 18237 1 180.0000771 15.1670000 2
18227 18236 18234 18232 1 180.0000771 15.1670000 2
18227 18236 18234 18235 1 180.0000771 15.1670000 2
18232 18236 18234 18235 4 180.0000771 4.6024000 2
18240 18241 18242 18243 1 180.0000771 15.1670000 2
18240 18241 18242 18244 1 180.0000771 15.1670000 2
18243 18241 18242 18244 4 180.0000771 4.6024000 2
18240 18241 18250 18242 4 180.0000771 4.6024000 2
18240 18241 18250 18248 1 180.0000771 15.1670000 2
18240 18241 18250 18251 1 180.0000771 15.1670000 2
18242 18241 18250 18248 1 180.0000771 15.1670000 2
18242 18241 18250 18251 1 180.0000771 15.1670000 2
18243 18242 18241 18250 1 180.0000771 15.1670000 2
18244 18242 18241 18250 1 180.0000771 15.1670000 2
18241 18242 18244 18245 1 180.0000771 15.1670000 2
18241 18242 18244 18246 1 180.0000771 15.1670000 2
18243 18242 18244 18245 1 180.0000771 15.1670000 2
18243 18242 18244 18246 1 180.0000771 15.1670000 2
18242 18244 18246 18247 1 180.0000771 15.1670000 2
18242 18244 18246 18248 1 180.0000771 15.1670000 2
18245 18244 18246 18247 1 180.0000771 15.1670000 2
18245 18244 18246 18248 1 180.0000771 15.1670000 2
18242 18246 18244 18245 4 180.0000771 4.6024000 2
18244 18246 18248 18249 1 180.0000771 15.1670000 2
18244 18246 18248 18250 1 180.0000771 15.1670000 2
18247 18246 18248 18249 1 180.0000771 15.1670000 2
18247 18246 18248 18250 1 180.0000771 15.1670000 2
18244 18248 18246 18247 4 180.0000771 4.6024000 2
18241 18248 18250 18251 4 180.0000771 4.6024000 2
18246 18248 18250 18251 1 180.0000771 15.1670000 2
18249 18248 18250 18251 1 180.0000771 15.1670000 2
18241 18250 18248 18246 1 180.0000771 15.1670000 2
18241 18250 18248 18249 1 180.0000771 15.1670000 2
18246 18250 18248 18249 4 180.0000771 4.6024000 2
18254 18255 18256 18257 1 180.0000771 15.1670000 2
18254 18255 18256 18258 1 180.0000771 15.1670000 2
18257 18255 18256 18258 4 180.0000771 4.6024000 2
18254 18255 18264 18256 4 180.0000771 4.6024000 2
18254 18255 18264 18262 1 180.0000771 15.1670000 2
18254 18255 18264 18265 1 180.0000771 15.1670000 2
18256 18255 18264 18262 1 180.0000771 15.1670000 2
18256 18255 18264 18265 1 180.0000771 15.1670000 2
18257 18256 18255 18264 1 180.0000771 15.1670000 2
18258 18256 18255 18264 1 180.0000771 15.1670000 2
18255 18256 18258 18259 1 180.0000771 15.1670000 2
18255 18256 18258 18260 1 180.0000771 15.1670000 2
18257 18256 18258 18259 1 180.0000771 15.1670000 2
18257 18256 18258 18260 1 180.0000771 15.1670000 2
18256 18258 18260 18261 1 180.0000771 15.1670000 2
18256 18258 18260 18262 1 180.0000771 15.1670000 2
18259 18258 18260 18261 1 180.0000771 15.1670000 2
18259 18258 18260 18262 1 180.0000771 15.1670000 2
18256 18260 18258 18259 4 180.0000771 4.6024000 2
18258 18260 18262 18263 1 180.0000771 15.1670000 2
18258 18260 18262 18264 1 180.0000771 15.1670000 2
18261 18260 18262 18263 1 180.0000771 15.1670000 2
18261 18260 18262 18264 1 180.0000771 15.1670000 2
18258 18262 18260 18261 4 180.0000771 4.6024000 2
18255 18262 18264 18265 4 180.0000771 4.6024000 2
18260 18262 18264 18265 1 180.0000771 15.1670000 2
18263 18262 18264 18265 1 180.0000771 15.1670000 2
18255 18264 18262 18260 1 180.0000771 15.1670000 2
18255 18264 18262 18263 1 180.0000771 15.1670000 2
18260 18264 18262 18263 4 180.0000771 4.6024000 2
18268 18269 18270 18271 1 180.0000771 15.1670000 2
18268 18269 18270 18272 1 180.0000771 15.1670000 2
18271 18269 18270 18272 4 180.0000771 4.6024000 2
18268 18269 18278 18270 4 180.0000771 4.6024000 2
18268 18269 18278 18276 1 180.0000771 15.1670000 2
18268 18269 18278 18279 1 180.0000771 15.1670000 2
18270 18269 18278 18276 1 180.0000771 15.1670000 2
18270 18269 18278 18279 1 180.0000771 15.1670000 2
18271 18270 18269 18278 1 180.0000771 15.1670000 2
18272 18270 18269 18278 1 180.0000771 15.1670000 2
18269 18270 18272 18273 1 180.0000771 15.1670000 2
18269 18270 18272 18274 1 180.0000771 15.1670000 2
18271 18270 18272 18273 1 180.0000771 15.1670000 2
18271 18270 18272 18274 1 180.0000771 15.1670000 2
18270 18272 18274 18275 1 180.0000771 15.1670000 2
18270 18272 18274 18276 1 180.0000771 15.1670000 2
18273 18272 18274 18275 1 180.0000771 15.1670000 2
18273 18272 18274 18276 1 180.0000771 15.1670000 2
18270 18274 18272 18273 4 180.0000771 4.6024000 2
18272 18274 18276 18277 1 180.0000771 15.1670000 2
18272 18274 18276 18278 1 180.0000771 15.1670000 2
18275 18274 18276 18277 1 180.0000771 15.1670000 2
18275 18274 18276 18278 1 180.0000771 15.1670000 2
18272 18276 18274 18275 4 180.0000771 4.6024000 2
18269 18276 18278 18279 4 180.0000771 4.6024000 2
18274 18276 18278 18279 1 180.0000771 15.1670000 2
18277 18276 18278 18279 1 180.0000771 15.1670000 2
18269 18278 18276 18274 1 180.0000771 15.1670000 2
18269 18278 18276 18277 1 180.0000771 15.1670000 2
18274 18278 18276 18277 4 180.0000771 4.6024000 2
18282 18283 18284 18285 1 180.0000771 15.1670000 2
18282 18283 18284 18286 1 180.0000771 15.1670000 2
18285 18283 18284 18286 4 180.0000771 4.6024000 2
18282 18283 18292 18284 4 180.0000771 4.6024000 2
18282 18283 18292 18290 1 180.0000771 15.1670000 2
18282 18283 18292 18293 1 180.0000771 15.1670000 2
18284 18283 18292 18290 1 180.0000771 15.1670000 2
18284 18283 18292 18293 1 180.0000771 15.1670000 2
18285 18284 18283 18292 1 180.0000771 15.1670000 2
18286 18284 18283 18292 1 180.0000771 15.1670000 2
18283 18284 18286 18287 1 180.0000771 15.1670000 2
18283 18284 18286 18288 1 180.0000771 15.1670000 2
18285 18284 18286 18287 1 180.0000771 15.1670000 2
18285 18284 18286 18288 1 180.0000771 15.1670000 2
18284 18286 18288 18289 1 180.0000771 15.1670000 2
18284 18286 18288 18290 1 180.0000771 15.1670000 2
18287 18286 18288 18289 1 180.0000771 15.1670000 2
18287 18286 18288 18290 1 180.0000771 15.1670000 2
18284 18288 18286 18287 4 180.0000771 4.6024000 2
18286 18288 18290 18291 1 180.0000771 15.1670000 2
18286 18288 18290 18292 1 180.0000771 15.1670000 2
18289 18288 18290 18291 1 180.0000771 15.1670000 2
18289 18288 18290 18292 1 180.0000771 15.1670000 2
18286 18290 18288 18289 4 180.0000771 4.6024000 2
18283 18290 18292 18293 4 180.0000771 4.6024000 2
18288 18290 18292 18293 1 180.0000771 15.1670000 2
18291 18290 18292 18293 1 180.0000771 15.1670000 2
18283 18292 18290 18288 1 180.0000771 15.1670000 2
18283 18292 18290 18291 1 180.0000771 15.1670000 2
18288 18292 18290 18291 4 180.0000771 4.6024000 2
18296 18297 18298 18299 1 180.0000771 15.1670000 2
18296 18297 18298 18300 1 180.0000771 15.1670000 2
18299 18297 18298 18300 4 180.0000771 4.6024000 2
18296 18297 18306 18298 4 180.0000771 4.6024000 2
18296 18297 18306 18304 1 180.0000771 15.1670000 2
18296 18297 18306 18307 1 180.0000771 15.1670000 2
18298 18297 18306 18304 1 180.0000771 15.1670000 2
18298 18297 18306 18307 1 180.0000771 15.1670000 2
18299 18298 18297 18306 1 180.0000771 15.1670000 2
18300 18298 18297 18306 1 180.0000771 15.1670000 2
18297 18298 18300 18301 1 180.0000771 15.1670000 2
18297 18298 18300 18302 1 180.0000771 15.1670000 2
18299 18298 18300 18301 1 180.0000771 15.1670000 2
18299 18298 18300 18302 1 180.0000771 15.1670000 2
18298 18300 18302 18303 1 180.0000771 15.1670000 2
18298 18300 18302 18304 1 180.0000771 15.1670000 2
18301 18300 18302 18303 1 180.0000771 15.1670000 2
18301 18300 18302 18304 1 180.0000771 15.1670000 2
18298 18302 18300 18301 4 180.0000771 4.6024000 2
18300 18302 18304 18305 1 180.0000771 15.1670000 2
18300 18302 18304 18306 1 180.0000771 15.1670000 2
18303 18302 18304 18305 1 180.0000771 15.1670000 2
18303 18302 18304 18306 1 180.0000771 15.1670000 2
18300 18304 18302 18303 4 180.0000771 4.6024000 2
18297 18304 18306 18307 4 180.0000771 4.6024000 2
18302 18304 18306 18307 1 180.0000771 15.1670000 2
18305 18304 18306 18307 1 180.0000771 15.1670000 2
18297 18306 18304 18302 1 180.0000771 15.1670000 2
18297 18306 18304 18305 1 180.0000771 15.1670000 2
18302 18306 18304 18305 4 180.0000771 4.6024000 2
18310 18311 18312 18313 1 180.0000771 15.1670000 2
18310 18311 18312 18314 1 180.0000771 15.1670000 2
18313 18311 18312 18314 4 180.0000771 4.6024000 2
18310 18311 18320 18312 4 180.0000771 4.6024000 2
18310 18311 18320 18318 1 180.0000771 15.1670000 2
18310 18311 18320 18321 1 180.0000771 15.1670000 2
18312 18311 18320 18318 1 180.0000771 15.1670000 2
18312 18311 18320 18321 1 180.0000771 15.1670000 2
18313 18312 18311 18320 1 180.0000771 15.1670000 2
18314 18312 18311 18320 1 180.0000771 15.1670000 2
18311 18312 18314 18315 1 180.0000771 15.1670000 2
18311 18312 18314 18316 1 180.0000771 15.1670000 2
18313 18312 18314 18315 1 180.0000771 15.1670000 2
18313 18312 18314 18316 1 180.0000771 15.1670000 2
18312 18314 18316 18317 1 180.0000771 15.1670000 2
18312 18314 18316 18318 1 180.0000771 15.1670000 2
18315 18314 18316 18317 1 180.0000771 15.1670000 2
18315 18314 18316 18318 1 180.0000771 15.1670000 2
18312 18316 18314 18315 4 180.0000771 4.6024000 2
18314 18316 18318 18319 1 180.0000771 15.1670000 2
18314 18316 18318 18320 1 180.0000771 15.1670000 2
18317 18316 18318 18319 1 180.0000771 15.1670000 2
18317 18316 18318 18320 1 180.0000771 15.1670000 2
18314 18318 18316 18317 4 180.0000771 4.6024000 2
18311 18318 18320 18321 4 180.0000771 4.6024000 2
18316 18318 18320 18321 1 180.0000771 15.1670000 2
18319 18318 18320 18321 1 180.0000771 15.1670000 2
18311 18320 18318 18316 1 180.0000771 15.1670000 2
18311 18320 18318 18319 1 180.0000771 15.1670000 2
18316 18320 18318 18319 4 180.0000771 4.6024000 2
18322 18323 18324 18325 1 180.0000771 15.1670000 2
18322 18323 18324 18326 1 180.0000771 15.1670000 2
18325 18323 18324 18326 4 180.0000771 4.6024000 2
18322 18323 18332 18324 4 180.0000771 4.6024000 2
18322 18323 18332 18330 1 180.0000771 15.1670000 2
18322 18323 18332 18333 1 180.0000771 15.1670000 2
18324 18323 18332 18330 1 180.0000771 15.1670000 2
18324 18323 18332 18333 1 180.0000771 15.1670000 2
18325 18324 18323 18332 1 180.0000771 15.1670000 2
18326 18324 18323 18332 1 180.0000771 15.1670000 2
18323 18324 18326 18327 1 180.0000771 15.1670000 2
18323 18324 18326 18328 1 180.0000771 15.1670000 2
18325 18324 18326 18327 1 180.0000771 15.1670000 2
18325 18324 18326 18328 1 180.0000771 15.1670000 2
18324 18326 18328 18329 1 180.0000771 15.1670000 2
18324 18326 18328 18330 1 180.0000771 15.1670000 2
18327 18326 18328 18329 1 180.0000771 15.1670000 2
18327 18326 18328 18330 1 180.0000771 15.1670000 2
18324 18328 18326 18327 4 180.0000771 4.6024000 2
18326 18328 18330 18331 1 180.0000771 15.1670000 2
18326 18328 18330 18332 1 180.0000771 15.1670000 2
18329 18328 18330 18331 1 180.0000771 15.1670000 2
18329 18328 18330 18332 1 180.0000771 15.1670000 2
18326 18330 18328 18329 4 180.0000771 4.6024000 2
18323 18330 18332 18333 4 180.0000771 4.6024000 2
18328 18330 18332 18333 1 180.0000771 15.1670000 2
18331 18330 18332 18333 1 180.0000771 15.1670000 2
18323 18332 18330 18328 1 180.0000771 15.1670000 2
18323 18332 18330 18331 1 180.0000771 15.1670000 2
18328 18332 18330 18331 4 180.0000771 4.6024000 2
18334 18335 18336 18337 1 180.0000771 15.1670000 2
18334 18335 18336 18338 1 180.0000771 15.1670000 2
18337 18335 18336 18338 4 180.0000771 4.6024000 2
18334 18335 18344 18336 4 180.0000771 4.6024000 2
18334 18335 18344 18342 1 180.0000771 15.1670000 2
18334 18335 18344 18345 1 180.0000771 15.1670000 2
18336 18335 18344 18342 1 180.0000771 15.1670000 2
18336 18335 18344 18345 1 180.0000771 15.1670000 2
18337 18336 18335 18344 1 180.0000771 15.1670000 2
18338 18336 18335 18344 1 180.0000771 15.1670000 2
18335 18336 18338 18339 1 180.0000771 15.1670000 2
18335 18336 18338 18340 1 180.0000771 15.1670000 2
18337 18336 18338 18339 1 180.0000771 15.1670000 2
18337 18336 18338 18340 1 180.0000771 15.1670000 2
18336 18338 18340 18341 1 180.0000771 15.1670000 2
18336 18338 18340 18342 1 180.0000771 15.1670000 2
18339 18338 18340 18341 1 180.0000771 15.1670000 2
18339 18338 18340 18342 1 180.0000771 15.1670000 2
18336 18340 18338 18339 4 180.0000771 4.6024000 2
18338 18340 18342 18343 1 180.0000771 15.1670000 2
18338 18340 18342 18344 1 180.0000771 15.1670000 2
18341 18340 18342 18343 1 180.0000771 15.1670000 2
18341 18340 18342 18344 1 180.0000771 15.1670000 2
18338 18342 18340 18341 4 180.0000771 4.6024000 2
18335 18342 18344 18345 4 180.0000771 4.6024000 2
18340 18342 18344 18345 1 180.0000771 15.1670000 2
18343 18342 18344 18345 1 180.0000771 15.1670000 2
18335 18344 18342 18340 1 180.0000771 15.1670000 2
18335 18344 18342 18343 1 180.0000771 15.1670000 2
18340 18344 18342 18343 4 180.0000771 4.6024000 2
18346 18347 18348 18349 1 180.0000771 15.1670000 2
18346 18347 18348 18350 1 180.0000771 15.1670000 2
18349 18347 18348 18350 4 180.0000771 4.6024000 2
18346 18347 18356 18348 4 180.0000771 4.6024000 2
18346 18347 18356 18354 1 180.0000771 15.1670000 2
18346 18347 18356 18357 1 180.0000771 15.1670000 2
18348 18347 18356 18354 1 180.0000771 15.1670000 2
18348 18347 18356 18357 1 180.0000771 15.1670000 2
18349 18348 18347 18356 1 180.0000771 15.1670000 2
18350 18348 18347 18356 1 180.0000771 15.1670000 2
18347 18348 18350 18351 1 180.0000771 15.1670000 2
18347 18348 18350 18352 1 180.0000771 15.1670000 2
18349 18348 18350 18351 1 180.0000771 15.1670000 2
18349 18348 18350 18352 1 180.0000771 15.1670000 2
18348 18350 18352 18353 1 180.0000771 15.1670000 2
18348 18350 18352 18354 1 180.0000771 15.1670000 2
18351 18350 18352 18353 1 180.0000771 15.1670000 2
18351 18350 18352 18354 1 180.0000771 15.1670000 2
18348 18352 18350 18351 4 180.0000771 4.6024000 2
18350 18352 18354 18355 1 180.0000771 15.1670000 2
18350 18352 18354 18356 1 180.0000771 15.1670000 2
18353 18352 18354 18355 1 180.0000771 15.1670000 2
18353 18352 18354 18356 1 180.0000771 15.1670000 2
18350 18354 18352 18353 4 180.0000771 4.6024000 2
18347 18354 18356 18357 4 180.0000771 4.6024000 2
18352 18354 18356 18357 1 180.0000771 15.1670000 2
18355 18354 18356 18357 1 180.0000771 15.1670000 2
18347 18356 18354 18352 1 180.0000771 15.1670000 2
18347 18356 18354 18355 1 180.0000771 15.1670000 2
18352 18356 18354 18355 4 180.0000771 4.6024000 2
18358 18359 18360 18361 1 180.0000771 15.1670000 2
18358 18359 18360 18362 1 180.0000771 15.1670000 2
18361 18359 18360 18362 4 180.0000771 4.6024000 2
18358 18359 18368 18360 4 180.0000771 4.6024000 2
18358 18359 18368 18366 1 180.0000771 15.1670000 2
18358 18359 18368 18369 1 180.0000771 15.1670000 2
18360 18359 18368 18366 1 180.0000771 15.1670000 2
18360 18359 18368 18369 1 180.0000771 15.1670000 2
18361 18360 18359 18368 1 180.0000771 15.1670000 2
18362 18360 18359 18368 1 180.0000771 15.1670000 2
18359 18360 18362 18363 1 180.0000771 15.1670000 2
18359 18360 18362 18364 1 180.0000771 15.1670000 2
18361 18360 18362 18363 1 180.0000771 15.1670000 2
18361 18360 18362 18364 1 180.0000771 15.1670000 2
18360 18362 18364 18365 1 180.0000771 15.1670000 2
18360 18362 18364 18366 1 180.0000771 15.1670000 2
18363 18362 18364 18365 1 180.0000771 15.1670000 2
18363 18362 18364 18366 1 180.0000771 15.1670000 2
18360 18364 18362 18363 4 180.0000771 4.6024000 2
18362 18364 18366 18367 1 180.0000771 15.1670000 2
18362 18364 18366 18368 1 180.0000771 15.1670000 2
18365 18364 18366 18367 1 180.0000771 15.1670000 2
18365 18364 18366 18368 1 180.0000771 15.1670000 2
18362 18366 18364 18365 4 180.0000771 4.6024000 2
18359 18366 18368 18369 4 180.0000771 4.6024000 2
18364 18366 18368 18369 1 180.0000771 15.1670000 2
18367 18366 18368 18369 1 180.0000771 15.1670000 2
18359 18368 18366 18364 1 180.0000771 15.1670000 2
18359 18368 18366 18367 1 180.0000771 15.1670000 2
18364 18368 18366 18367 4 180.0000771 4.6024000 2
18370 18371 18372 18373 1 180.0000771 15.1670000 2
18370 18371 18372 18374 1 180.0000771 15.1670000 2
18373 18371 18372 18374 4 180.0000771 4.6024000 2
18370 18371 18380 18372 4 180.0000771 4.6024000 2
18370 18371 18380 18378 1 180.0000771 15.1670000 2
18370 18371 18380 18381 1 180.0000771 15.1670000 2
18372 18371 18380 18378 1 180.0000771 15.1670000 2
18372 18371 18380 18381 1 180.0000771 15.1670000 2
18373 18372 18371 18380 1 180.0000771 15.1670000 2
18374 18372 18371 18380 1 180.0000771 15.1670000 2
18371 18372 18374 18375 1 180.0000771 15.1670000 2
18371 18372 18374 18376 1 180.0000771 15.1670000 2
18373 18372 18374 18375 1 180.0000771 15.1670000 2
18373 18372 18374 18376 1 180.0000771 15.1670000 2
18372 18374 18376 18377 1 180.0000771 15.1670000 2
18372 18374 18376 18378 1 180.0000771 15.1670000 2
18375 18374 18376 18377 1 180.0000771 15.1670000 2
18375 18374 18376 18378 1 180.0000771 15.1670000 2
18372 18376 18374 18375 4 180.0000771 4.6024000 2
18374 18376 18378 18379 1 180.0000771 15.1670000 2
18374 18376 18378 18380 1 180.0000771 15.1670000 2
18377 18376 18378 18379 1 180.0000771 15.1670000 2
18377 18376 18378 18380 1 180.0000771 15.1670000 2
18374 18378 18376 18377 4 180.0000771 4.6024000 2
18371 18378 18380 18381 4 180.0000771 4.6024000 2
18376 18378 18380 18381 1 180.0000771 15.1670000 2
18379 18378 18380 18381 1 180.0000771 15.1670000 2
18371 18380 18378 18376 1 180.0000771 15.1670000 2
18371 18380 18378 18379 1 180.0000771 15.1670000 2
18376 18380 18378 18379 4 180.0000771 4.6024000 2
18382 18383 18384 18385 1 180.0000771 15.1670000 2
18382 18383 18384 18386 1 180.0000771 15.1670000 2
18385 18383 18384 18386 4 180.0000771 4.6024000 2
18382 18383 18392 18384 4 180.0000771 4.6024000 2
18382 18383 18392 18390 1 180.0000771 15.1670000 2
18382 18383 18392 18393 1 180.0000771 15.1670000 2
18384 18383 18392 18390 1 180.0000771 15.1670000 2
18384 18383 18392 18393 1 180.0000771 15.1670000 2
18385 18384 18383 18392 1 180.0000771 15.1670000 2
18386 18384 18383 18392 1 180.0000771 15.1670000 2
18383 18384 18386 18387 1 180.0000771 15.1670000 2
18383 18384 18386 18388 1 180.0000771 15.1670000 2
18385 18384 18386 18387 1 180.0000771 15.1670000 2
18385 18384 18386 18388 1 180.0000771 15.1670000 2
18384 18386 18388 18389 1 180.0000771 15.1670000 2
18384 18386 18388 18390 1 180.0000771 15.1670000 2
18387 18386 18388 18389 1 180.0000771 15.1670000 2
18387 18386 18388 18390 1 180.0000771 15.1670000 2
18384 18388 18386 18387 4 180.0000771 4.6024000 2
18386 18388 18390 18391 1 180.0000771 15.1670000 2
18386 18388 18390 18392 1 180.0000771 15.1670000 2
18389 18388 18390 18391 1 180.0000771 15.1670000 2
18389 18388 18390 18392 1 180.0000771 15.1670000 2
18386 18390 18388 18389 4 180.0000771 4.6024000 2
18383 18390 18392 18393 4 180.0000771 4.6024000 2
18388 18390 18392 18393 1 180.0000771 15.1670000 2
18391 18390 18392 18393 1 180.0000771 15.1670000 2
18383 18392 18390 18388 1 180.0000771 15.1670000 2
18383 18392 18390 18391 1 180.0000771 15.1670000 2
18388 18392 18390 18391 4 180.0000771 4.6024000 2
18394 18395 18396 18397 1 180.0000771 15.1670000 2
18394 18395 18396 18398 1 180.0000771 15.1670000 2
18397 18395 18396 18398 4 180.0000771 4.6024000 2
18394 18395 18404 18396 4 180.0000771 4.6024000 2
18394 18395 18404 18402 1 180.0000771 15.1670000 2
18394 18395 18404 18405 1 180.0000771 15.1670000 2
18396 18395 18404 18402 1 180.0000771 15.1670000 2
18396 18395 18404 18405 1 180.0000771 15.1670000 2
18397 18396 18395 18404 1 180.0000771 15.1670000 2
18398 18396 18395 18404 1 180.0000771 15.1670000 2
18395 18396 18398 18399 1 180.0000771 15.1670000 2
18395 18396 18398 18400 1 180.0000771 15.1670000 2
18397 18396 18398 18399 1 180.0000771 15.1670000 2
18397 18396 18398 18400 1 180.0000771 15.1670000 2
18396 18398 18400 18401 1 180.0000771 15.1670000 2
18396 18398 18400 18402 1 180.0000771 15.1670000 2
18399 18398 18400 18401 1 180.0000771 15.1670000 2
18399 18398 18400 18402 1 180.0000771 15.1670000 2
18396 18400 18398 18399 4 180.0000771 4.6024000 2
18398 18400 18402 18403 1 180.0000771 15.1670000 2
18398 18400 18402 18404 1 180.0000771 15.1670000 2
18401 18400 18402 18403 1 180.0000771 15.1670000 2
18401 18400 18402 18404 1 180.0000771 15.1670000 2
18398 18402 18400 18401 4 180.0000771 4.6024000 2
18395 18402 18404 18405 4 180.0000771 4.6024000 2
18400 18402 18404 18405 1 180.0000771 15.1670000 2
18403 18402 18404 18405 1 180.0000771 15.1670000 2
18395 18404 18402 18400 1 180.0000771 15.1670000 2
18395 18404 18402 18403 1 180.0000771 15.1670000 2
18400 18404 18402 18403 4 180.0000771 4.6024000 2
18406 18407 18408 18409 1 180.0000771 15.1670000 2
18406 18407 18408 18410 1 180.0000771 15.1670000 2
18409 18407 18408 18410 4 180.0000771 4.6024000 2
18406 18407 18416 18408 4 180.0000771 4.6024000 2
18406 18407 18416 18414 1 180.0000771 15.1670000 2
18406 18407 18416 18417 1 180.0000771 15.1670000 2
18408 18407 18416 18414 1 180.0000771 15.1670000 2
18408 18407 18416 18417 1 180.0000771 15.1670000 2
18409 18408 18407 18416 1 180.0000771 15.1670000 2
18410 18408 18407 18416 1 180.0000771 15.1670000 2
18407 18408 18410 18411 1 180.0000771 15.1670000 2
18407 18408 18410 18412 1 180.0000771 15.1670000 2
18409 18408 18410 18411 1 180.0000771 15.1670000 2
18409 18408 18410 18412 1 180.0000771 15.1670000 2
18408 18410 18412 18413 1 180.0000771 15.1670000 2
18408 18410 18412 18414 1 180.0000771 15.1670000 2
18411 18410 18412 18413 1 180.0000771 15.1670000 2
18411 18410 18412 18414 1 180.0000771 15.1670000 2
18408 18412 18410 18411 4 180.0000771 4.6024000 2
18410 18412 18414 18415 1 180.0000771 15.1670000 2
18410 18412 18414 18416 1 180.0000771 15.1670000 2
18413 18412 18414 18415 1 180.0000771 15.1670000 2
18413 18412 18414 18416 1 180.0000771 15.1670000 2
18410 18414 18412 18413 4 180.0000771 4.6024000 2
18407 18414 18416 18417 4 180.0000771 4.6024000 2
18412 18414 18416 18417 1 180.0000771 15.1670000 2
18415 18414 18416 18417 1 180.0000771 15.1670000 2
18407 18416 18414 18412 1 180.0000771 15.1670000 2
18407 18416 18414 18415 1 180.0000771 15.1670000 2
18412 18416 18414 18415 4 180.0000771 4.6024000 2
18418 18419 18420 18421 1 180.0000771 15.1670000 2
18418 18419 18420 18422 1 180.0000771 15.1670000 2
18421 18419 18420 18422 4 180.0000771 4.6024000 2
18418 18419 18428 18420 4 180.0000771 4.6024000 2
18418 18419 18428 18426 1 180.0000771 15.1670000 2
18418 18419 18428 18429 1 180.0000771 15.1670000 2
18420 18419 18428 18426 1 180.0000771 15.1670000 2
18420 18419 18428 18429 1 180.0000771 15.1670000 2
18421 18420 18419 18428 1 180.0000771 15.1670000 2
18422 18420 18419 18428 1 180.0000771 15.1670000 2
18419 18420 18422 18423 1 180.0000771 15.1670000 2
18419 18420 18422 18424 1 180.0000771 15.1670000 2
18421 18420 18422 18423 1 180.0000771 15.1670000 2
18421 18420 18422 18424 1 180.0000771 15.1670000 2
18420 18422 18424 18425 1 180.0000771 15.1670000 2
18420 18422 18424 18426 1 180.0000771 15.1670000 2
18423 18422 18424 18425 1 180.0000771 15.1670000 2
18423 18422 18424 18426 1 180.0000771 15.1670000 2
18420 18424 18422 18423 4 180.0000771 4.6024000 2
18422 18424 18426 18427 1 180.0000771 15.1670000 2
18422 18424 18426 18428 1 180.0000771 15.1670000 2
18425 18424 18426 18427 1 180.0000771 15.1670000 2
18425 18424 18426 18428 1 180.0000771 15.1670000 2
18422 18426 18424 18425 4 180.0000771 4.6024000 2
18419 18426 18428 18429 4 180.0000771 4.6024000 2
18424 18426 18428 18429 1 180.0000771 15.1670000 2
18427 18426 18428 18429 1 180.0000771 15.1670000 2
18419 18428 18426 18424 1 180.0000771 15.1670000 2
18419 18428 18426 18427 1 180.0000771 15.1670000 2
18424 18428 18426 18427 4 180.0000771 4.6024000 2
18430 18431 18432 18433 1 180.0000771 15.1670000 2
18430 18431 18432 18434 1 180.0000771 15.1670000 2
18433 18431 18432 18434 4 180.0000771 4.6024000 2
18430 18431 18440 18432 4 180.0000771 4.6024000 2
18430 18431 18440 18438 1 180.0000771 15.1670000 2
18430 18431 18440 18441 1 180.0000771 15.1670000 2
18432 18431 18440 18438 1 180.0000771 15.1670000 2
18432 18431 18440 18441 1 180.0000771 15.1670000 2
18433 18432 18431 18440 1 180.0000771 15.1670000 2
18434 18432 18431 18440 1 180.0000771 15.1670000 2
18431 18432 18434 18435 1 180.0000771 15.1670000 2
18431 18432 18434 18436 1 180.0000771 15.1670000 2
18433 18432 18434 18435 1 180.0000771 15.1670000 2
18433 18432 18434 18436 1 180.0000771 15.1670000 2
18432 18434 18436 18437 1 180.0000771 15.1670000 2
18432 18434 18436 18438 1 180.0000771 15.1670000 2
18435 18434 18436 18437 1 180.0000771 15.1670000 2
18435 18434 18436 18438 1 180.0000771 15.1670000 2
18432 18436 18434 18435 4 180.0000771 4.6024000 2
18434 18436 18438 18439 1 180.0000771 15.1670000 2
18434 18436 18438 18440 1 180.0000771 15.1670000 2
18437 18436 18438 18439 1 180.0000771 15.1670000 2
18437 18436 18438 18440 1 180.0000771 15.1670000 2
18434 18438 18436 18437 4 180.0000771 4.6024000 2
18431 18438 18440 18441 4 180.0000771 4.6024000 2
18436 18438 18440 18441 1 180.0000771 15.1670000 2
18439 18438 18440 18441 1 180.0000771 15.1670000 2
18431 18440 18438 18436 1 180.0000771 15.1670000 2
18431 18440 18438 18439 1 180.0000771 15.1670000 2
18436 18440 18438 18439 4 180.0000771 4.6024000 2
18442 18443 18444 18445 1 180.0000771 15.1670000 2
18442 18443 18444 18446 1 180.0000771 15.1670000 2
18445 18443 18444 18446 4 180.0000771 4.6024000 2
18442 18443 18452 18444 4 180.0000771 4.6024000 2
18442 18443 18452 18450 1 180.0000771 15.1670000 2
18442 18443 18452 18453 1 180.0000771 15.1670000 2
18444 18443 18452 18450 1 180.0000771 15.1670000 2
18444 18443 18452 18453 1 180.0000771 15.1670000 2
18445 18444 18443 18452 1 180.0000771 15.1670000 2
18446 18444 18443 18452 1 180.0000771 15.1670000 2
18443 18444 18446 18447 1 180.0000771 15.1670000 2
18443 18444 18446 18448 1 180.0000771 15.1670000 2
18445 18444 18446 18447 1 180.0000771 15.1670000 2
18445 18444 18446 18448 1 180.0000771 15.1670000 2
18444 18446 18448 18449 1 180.0000771 15.1670000 2
18444 18446 18448 18450 1 180.0000771 15.1670000 2
18447 18446 18448 18449 1 180.0000771 15.1670000 2
18447 18446 18448 18450 1 180.0000771 15.1670000 2
18444 18448 18446 18447 4 180.0000771 4.6024000 2
18446 18448 18450 18451 1 180.0000771 15.1670000 2
18446 18448 18450 18452 1 180.0000771 15.1670000 2
18449 18448 18450 18451 1 180.0000771 15.1670000 2
18449 18448 18450 18452 1 180.0000771 15.1670000 2
18446 18450 18448 18449 4 180.0000771 4.6024000 2
18443 18450 18452 18453 4 180.0000771 4.6024000 2
18448 18450 18452 18453 1 180.0000771 15.1670000 2
18451 18450 18452 18453 1 180.0000771 15.1670000 2
18443 18452 18450 18448 1 180.0000771 15.1670000 2
18443 18452 18450 18451 1 180.0000771 15.1670000 2
18448 18452 18450 18451 4 180.0000771 4.6024000 2
18454 18455 18456 18457 1 180.0000771 15.1670000 2
18454 18455 18456 18458 1 180.0000771 15.1670000 2
18457 18455 18456 18458 4 180.0000771 4.6024000 2
18454 18455 18464 18456 4 180.0000771 4.6024000 2
18454 18455 18464 18462 1 180.0000771 15.1670000 2
18454 18455 18464 18465 1 180.0000771 15.1670000 2
18456 18455 18464 18462 1 180.0000771 15.1670000 2
18456 18455 18464 18465 1 180.0000771 15.1670000 2
18457 18456 18455 18464 1 180.0000771 15.1670000 2
18458 18456 18455 18464 1 180.0000771 15.1670000 2
18455 18456 18458 18459 1 180.0000771 15.1670000 2
18455 18456 18458 18460 1 180.0000771 15.1670000 2
18457 18456 18458 18459 1 180.0000771 15.1670000 2
18457 18456 18458 18460 1 180.0000771 15.1670000 2
18456 18458 18460 18461 1 180.0000771 15.1670000 2
18456 18458 18460 18462 1 180.0000771 15.1670000 2
18459 18458 18460 18461 1 180.0000771 15.1670000 2
18459 18458 18460 18462 1 180.0000771 15.1670000 2
18456 18460 18458 18459 4 180.0000771 4.6024000 2
18458 18460 18462 18463 1 180.0000771 15.1670000 2
18458 18460 18462 18464 1 180.0000771 15.1670000 2
18461 18460 18462 18463 1 180.0000771 15.1670000 2
18461 18460 18462 18464 1 180.0000771 15.1670000 2
18458 18462 18460 18461 4 180.0000771 4.6024000 2
18455 18462 18464 18465 4 180.0000771 4.6024000 2
18460 18462 18464 18465 1 180.0000771 15.1670000 2
18463 18462 18464 18465 1 180.0000771 15.1670000 2
18455 18464 18462 18460 1 180.0000771 15.1670000 2
18455 18464 18462 18463 1 180.0000771 15.1670000 2
18460 18464 18462 18463 4 180.0000771 4.6024000 2
18466 18467 18468 18469 1 180.0000771 15.1670000 2
18466 18467 18468 18470 1 180.0000771 15.1670000 2
18469 18467 18468 18470 4 180.0000771 4.6024000 2
18466 18467 18476 18468 4 180.0000771 4.6024000 2
18466 18467 18476 18474 1 180.0000771 15.1670000 2
18466 18467 18476 18477 1 180.0000771 15.1670000 2
18468 18467 18476 18474 1 180.0000771 15.1670000 2
18468 18467 18476 18477 1 180.0000771 15.1670000 2
18469 18468 18467 18476 1 180.0000771 15.1670000 2
18470 18468 18467 18476 1 180.0000771 15.1670000 2
18467 18468 18470 18471 1 180.0000771 15.1670000 2
18467 18468 18470 18472 1 180.0000771 15.1670000 2
18469 18468 18470 18471 1 180.0000771 15.1670000 2
18469 18468 18470 18472 1 180.0000771 15.1670000 2
18468 18470 18472 18473 1 180.0000771 15.1670000 2
18468 18470 18472 18474 1 180.0000771 15.1670000 2
18471 18470 18472 18473 1 180.0000771 15.1670000 2
18471 18470 18472 18474 1 180.0000771 15.1670000 2
18468 18472 18470 18471 4 180.0000771 4.6024000 2
18470 18472 18474 18475 1 180.0000771 15.1670000 2
18470 18472 18474 18476 1 180.0000771 15.1670000 2
18473 18472 18474 18475 1 180.0000771 15.1670000 2
18473 18472 18474 18476 1 180.0000771 15.1670000 2
18470 18474 18472 18473 4 180.0000771 4.6024000 2
18467 18474 18476 18477 4 180.0000771 4.6024000 2
18472 18474 18476 18477 1 180.0000771 15.1670000 2
18475 18474 18476 18477 1 180.0000771 15.1670000 2
18467 18476 18474 18472 1 180.0000771 15.1670000 2
18467 18476 18474 18475 1 180.0000771 15.1670000 2
18472 18476 18474 18475 4 180.0000771 4.6024000 2
18478 18479 18480 18481 1 180.0000771 15.1670000 2
18478 18479 18480 18482 1 180.0000771 15.1670000 2
18481 18479 18480 18482 4 180.0000771 4.6024000 2
18478 18479 18488 18480 4 180.0000771 4.6024000 2
18478 18479 18488 18486 1 180.0000771 15.1670000 2
18478 18479 18488 18489 1 180.0000771 15.1670000 2
18480 18479 18488 18486 1 180.0000771 15.1670000 2
18480 18479 18488 18489 1 180.0000771 15.1670000 2
18481 18480 18479 18488 1 180.0000771 15.1670000 2
18482 18480 18479 18488 1 180.0000771 15.1670000 2
18479 18480 18482 18483 1 180.0000771 15.1670000 2
18479 18480 18482 18484 1 180.0000771 15.1670000 2
18481 18480 18482 18483 1 180.0000771 15.1670000 2
18481 18480 18482 18484 1 180.0000771 15.1670000 2
18480 18482 18484 18485 1 180.0000771 15.1670000 2
18480 18482 18484 18486 1 180.0000771 15.1670000 2
18483 18482 18484 18485 1 180.0000771 15.1670000 2
18483 18482 18484 18486 1 180.0000771 15.1670000 2
18480 18484 18482 18483 4 180.0000771 4.6024000 2
18482 18484 18486 18487 1 180.0000771 15.1670000 2
18482 18484 18486 18488 1 180.0000771 15.1670000 2
18485 18484 18486 18487 1 180.0000771 15.1670000 2
18485 18484 18486 18488 1 180.0000771 15.1670000 2
18482 18486 18484 18485 4 180.0000771 4.6024000 2
18479 18486 18488 18489 4 180.0000771 4.6024000 2
18484 18486 18488 18489 1 180.0000771 15.1670000 2
18487 18486 18488 18489 1 180.0000771 15.1670000 2
18479 18488 18486 18484 1 180.0000771 15.1670000 2
18479 18488 18486 18487 1 180.0000771 15.1670000 2
18484 18488 18486 18487 4 180.0000771 4.6024000 2
18490 18491 18492 18493 1 180.0000771 15.1670000 2
18490 18491 18492 18494 1 180.0000771 15.1670000 2
18493 18491 18492 18494 4 180.0000771 4.6024000 2
18490 18491 18500 18492 4 180.0000771 4.6024000 2
18490 18491 18500 18498 1 180.0000771 15.1670000 2
18490 18491 18500 18501 1 180.0000771 15.1670000 2
18492 18491 18500 18498 1 180.0000771 15.1670000 2
18492 18491 18500 18501 1 180.0000771 15.1670000 2
18493 18492 18491 18500 1 180.0000771 15.1670000 2
18494 18492 18491 18500 1 180.0000771 15.1670000 2
18491 18492 18494 18495 1 180.0000771 15.1670000 2
18491 18492 18494 18496 1 180.0000771 15.1670000 2
18493 18492 18494 18495 1 180.0000771 15.1670000 2
18493 18492 18494 18496 1 180.0000771 15.1670000 2
18492 18494 18496 18497 1 180.0000771 15.1670000 2
18492 18494 18496 18498 1 180.0000771 15.1670000 2
18495 18494 18496 18497 1 180.0000771 15.1670000 2
18495 18494 18496 18498 1 180.0000771 15.1670000 2
18492 18496 18494 18495 4 180.0000771 4.6024000 2
18494 18496 18498 18499 1 180.0000771 15.1670000 2
18494 18496 18498 18500 1 180.0000771 15.1670000 2
18497 18496 18498 18499 1 180.0000771 15.1670000 2
18497 18496 18498 18500 1 180.0000771 15.1670000 2
18494 18498 18496 18497 4 180.0000771 4.6024000 2
18491 18498 18500 18501 4 180.0000771 4.6024000 2
18496 18498 18500 18501 1 180.0000771 15.1670000 2
18499 18498 18500 18501 1 180.0000771 15.1670000 2
18491 18500 18498 18496 1 180.0000771 15.1670000 2
18491 18500 18498 18499 1 180.0000771 15.1670000 2
18496 18500 18498 18499 4 180.0000771 4.6024000 2
18502 18503 18504 18505 1 180.0000771 15.1670000 2
18502 18503 18504 18506 1 180.0000771 15.1670000 2
18505 18503 18504 18506 4 180.0000771 4.6024000 2
18502 18503 18512 18504 4 180.0000771 4.6024000 2
18502 18503 18512 18510 1 180.0000771 15.1670000 2
18502 18503 18512 18513 1 180.0000771 15.1670000 2
18504 18503 18512 18510 1 180.0000771 15.1670000 2
18504 18503 18512 18513 1 180.0000771 15.1670000 2
18505 18504 18503 18512 1 180.0000771 15.1670000 2
18506 18504 18503 18512 1 180.0000771 15.1670000 2
18503 18504 18506 18507 1 180.0000771 15.1670000 2
18503 18504 18506 18508 1 180.0000771 15.1670000 2
18505 18504 18506 18507 1 180.0000771 15.1670000 2
18505 18504 18506 18508 1 180.0000771 15.1670000 2
18504 18506 18508 18509 1 180.0000771 15.1670000 2
18504 18506 18508 18510 1 180.0000771 15.1670000 2
18507 18506 18508 18509 1 180.0000771 15.1670000 2
18507 18506 18508 18510 1 180.0000771 15.1670000 2
18504 18508 18506 18507 4 180.0000771 4.6024000 2
18506 18508 18510 18511 1 180.0000771 15.1670000 2
18506 18508 18510 18512 1 180.0000771 15.1670000 2
18509 18508 18510 18511 1 180.0000771 15.1670000 2
18509 18508 18510 18512 1 180.0000771 15.1670000 2
18506 18510 18508 18509 4 180.0000771 4.6024000 2
18503 18510 18512 18513 4 180.0000771 4.6024000 2
18508 18510 18512 18513 1 180.0000771 15.1670000 2
18511 18510 18512 18513 1 180.0000771 15.1670000 2
18503 18512 18510 18508 1 180.0000771 15.1670000 2
18503 18512 18510 18511 1 180.0000771 15.1670000 2
18508 18512 18510 18511 4 180.0000771 4.6024000 2
18514 18515 18516 18517 1 180.0000771 15.1670000 2
18514 18515 18516 18518 1 180.0000771 15.1670000 2
18517 18515 18516 18518 4 180.0000771 4.6024000 2
18514 18515 18524 18516 4 180.0000771 4.6024000 2
18514 18515 18524 18522 1 180.0000771 15.1670000 2
18514 18515 18524 18525 1 180.0000771 15.1670000 2
18516 18515 18524 18522 1 180.0000771 15.1670000 2
18516 18515 18524 18525 1 180.0000771 15.1670000 2
18517 18516 18515 18524 1 180.0000771 15.1670000 2
18518 18516 18515 18524 1 180.0000771 15.1670000 2
18515 18516 18518 18519 1 180.0000771 15.1670000 2
18515 18516 18518 18520 1 180.0000771 15.1670000 2
18517 18516 18518 18519 1 180.0000771 15.1670000 2
18517 18516 18518 18520 1 180.0000771 15.1670000 2
18516 18518 18520 18521 1 180.0000771 15.1670000 2
18516 18518 18520 18522 1 180.0000771 15.1670000 2
18519 18518 18520 18521 1 180.0000771 15.1670000 2
18519 18518 18520 18522 1 180.0000771 15.1670000 2
18516 18520 18518 18519 4 180.0000771 4.6024000 2
18518 18520 18522 18523 1 180.0000771 15.1670000 2
18518 18520 18522 18524 1 180.0000771 15.1670000 2
18521 18520 18522 18523 1 180.0000771 15.1670000 2
18521 18520 18522 18524 1 180.0000771 15.1670000 2
18518 18522 18520 18521 4 180.0000771 4.6024000 2
18515 18522 18524 18525 4 180.0000771 4.6024000 2
18520 18522 18524 18525 1 180.0000771 15.1670000 2
18523 18522 18524 18525 1 180.0000771 15.1670000 2
18515 18524 18522 18520 1 180.0000771 15.1670000 2
18515 18524 18522 18523 1 180.0000771 15.1670000 2
18520 18524 18522 18523 4 180.0000771 4.6024000 2
18526 18527 18528 18529 1 180.0000771 15.1670000 2
18526 18527 18528 18530 1 180.0000771 15.1670000 2
18529 18527 18528 18530 4 180.0000771 4.6024000 2
18526 18527 18536 18528 4 180.0000771 4.6024000 2
18526 18527 18536 18534 1 180.0000771 15.1670000 2
18526 18527 18536 18537 1 180.0000771 15.1670000 2
18528 18527 18536 18534 1 180.0000771 15.1670000 2
18528 18527 18536 18537 1 180.0000771 15.1670000 2
18529 18528 18527 18536 1 180.0000771 15.1670000 2
18530 18528 18527 18536 1 180.0000771 15.1670000 2
18527 18528 18530 18531 1 180.0000771 15.1670000 2
18527 18528 18530 18532 1 180.0000771 15.1670000 2
18529 18528 18530 18531 1 180.0000771 15.1670000 2
18529 18528 18530 18532 1 180.0000771 15.1670000 2
18528 18530 18532 18533 1 180.0000771 15.1670000 2
18528 18530 18532 18534 1 180.0000771 15.1670000 2
18531 18530 18532 18533 1 180.0000771 15.1670000 2
18531 18530 18532 18534 1 180.0000771 15.1670000 2
18528 18532 18530 18531 4 180.0000771 4.6024000 2
18530 18532 18534 18535 1 180.0000771 15.1670000 2
18530 18532 18534 18536 1 180.0000771 15.1670000 2
18533 18532 18534 18535 1 180.0000771 15.1670000 2
18533 18532 18534 18536 1 180.0000771 15.1670000 2
18530 18534 18532 18533 4 180.0000771 4.6024000 2
18527 18534 18536 18537 4 180.0000771 4.6024000 2
18532 18534 18536 18537 1 180.0000771 15.1670000 2
18535 18534 18536 18537 1 180.0000771 15.1670000 2
18527 18536 18534 18532 1 180.0000771 15.1670000 2
18527 18536 18534 18535 1 180.0000771 15.1670000 2
18532 18536 18534 18535 4 180.0000771 4.6024000 2
18538 18539 18540 18541 1 180.0000771 15.1670000 2
18538 18539 18540 18542 1 180.0000771 15.1670000 2
18541 18539 18540 18542 4 180.0000771 4.6024000 2
18538 18539 18548 18540 4 180.0000771 4.6024000 2
18538 18539 18548 18546 1 180.0000771 15.1670000 2
18538 18539 18548 18549 1 180.0000771 15.1670000 2
18540 18539 18548 18546 1 180.0000771 15.1670000 2
18540 18539 18548 18549 1 180.0000771 15.1670000 2
18541 18540 18539 18548 1 180.0000771 15.1670000 2
18542 18540 18539 18548 1 180.0000771 15.1670000 2
18539 18540 18542 18543 1 180.0000771 15.1670000 2
18539 18540 18542 18544 1 180.0000771 15.1670000 2
18541 18540 18542 18543 1 180.0000771 15.1670000 2
18541 18540 18542 18544 1 180.0000771 15.1670000 2
18540 18542 18544 18545 1 180.0000771 15.1670000 2
18540 18542 18544 18546 1 180.0000771 15.1670000 2
18543 18542 18544 18545 1 180.0000771 15.1670000 2
18543 18542 18544 18546 1 180.0000771 15.1670000 2
18540 18544 18542 18543 4 180.0000771 4.6024000 2
18542 18544 18546 18547 1 180.0000771 15.1670000 2
18542 18544 18546 18548 1 180.0000771 15.1670000 2
18545 18544 18546 18547 1 180.0000771 15.1670000 2
18545 18544 18546 18548 1 180.0000771 15.1670000 2
18542 18546 18544 18545 4 180.0000771 4.6024000 2
18539 18546 18548 18549 4 180.0000771 4.6024000 2
18544 18546 18548 18549 1 180.0000771 15.1670000 2
18547 18546 18548 18549 1 180.0000771 15.1670000 2
18539 18548 18546 18544 1 180.0000771 15.1670000 2
18539 18548 18546 18547 1 180.0000771 15.1670000 2
18544 18548 18546 18547 4 180.0000771 4.6024000 2
18550 18551 18552 18553 1 180.0000771 15.1670000 2
18550 18551 18552 18554 1 180.0000771 15.1670000 2
18553 18551 18552 18554 4 180.0000771 4.6024000 2
18550 18551 18560 18552 4 180.0000771 4.6024000 2
18550 18551 18560 18558 1 180.0000771 15.1670000 2
18550 18551 18560 18561 1 180.0000771 15.1670000 2
18552 18551 18560 18558 1 180.0000771 15.1670000 2
18552 18551 18560 18561 1 180.0000771 15.1670000 2
18553 18552 18551 18560 1 180.0000771 15.1670000 2
18554 18552 18551 18560 1 180.0000771 15.1670000 2
18551 18552 18554 18555 1 180.0000771 15.1670000 2
18551 18552 18554 18556 1 180.0000771 15.1670000 2
18553 18552 18554 18555 1 180.0000771 15.1670000 2
18553 18552 18554 18556 1 180.0000771 15.1670000 2
18552 18554 18556 18557 1 180.0000771 15.1670000 2
18552 18554 18556 18558 1 180.0000771 15.1670000 2
18555 18554 18556 18557 1 180.0000771 15.1670000 2
18555 18554 18556 18558 1 180.0000771 15.1670000 2
18552 18556 18554 18555 4 180.0000771 4.6024000 2
18554 18556 18558 18559 1 180.0000771 15.1670000 2
18554 18556 18558 18560 1 180.0000771 15.1670000 2
18557 18556 18558 18559 1 180.0000771 15.1670000 2
18557 18556 18558 18560 1 180.0000771 15.1670000 2
18554 18558 18556 18557 4 180.0000771 4.6024000 2
18551 18558 18560 18561 4 180.0000771 4.6024000 2
18556 18558 18560 18561 1 180.0000771 15.1670000 2
18559 18558 18560 18561 1 180.0000771 15.1670000 2
18551 18560 18558 18556 1 180.0000771 15.1670000 2
18551 18560 18558 18559 1 180.0000771 15.1670000 2
18556 18560 18558 18559 4 180.0000771 4.6024000 2
18562 18563 18564 18565 1 180.0000771 15.1670000 2
18562 18563 18564 18566 1 180.0000771 15.1670000 2
18565 18563 18564 18566 4 180.0000771 4.6024000 2
18562 18563 18572 18564 4 180.0000771 4.6024000 2
18562 18563 18572 18570 1 180.0000771 15.1670000 2
18562 18563 18572 18573 1 180.0000771 15.1670000 2
18564 18563 18572 18570 1 180.0000771 15.1670000 2
18564 18563 18572 18573 1 180.0000771 15.1670000 2
18565 18564 18563 18572 1 180.0000771 15.1670000 2
18566 18564 18563 18572 1 180.0000771 15.1670000 2
18563 18564 18566 18567 1 180.0000771 15.1670000 2
18563 18564 18566 18568 1 180.0000771 15.1670000 2
18565 18564 18566 18567 1 180.0000771 15.1670000 2
18565 18564 18566 18568 1 180.0000771 15.1670000 2
18564 18566 18568 18569 1 180.0000771 15.1670000 2
18564 18566 18568 18570 1 180.0000771 15.1670000 2
18567 18566 18568 18569 1 180.0000771 15.1670000 2
18567 18566 18568 18570 1 180.0000771 15.1670000 2
18564 18568 18566 18567 4 180.0000771 4.6024000 2
18566 18568 18570 18571 1 180.0000771 15.1670000 2
18566 18568 18570 18572 1 180.0000771 15.1670000 2
18569 18568 18570 18571 1 180.0000771 15.1670000 2
18569 18568 18570 18572 1 180.0000771 15.1670000 2
18566 18570 18568 18569 4 180.0000771 4.6024000 2
18563 18570 18572 18573 4 180.0000771 4.6024000 2
18568 18570 18572 18573 1 180.0000771 15.1670000 2
18571 18570 18572 18573 1 180.0000771 15.1670000 2
18563 18572 18570 18568 1 180.0000771 15.1670000 2
18563 18572 18570 18571 1 180.0000771 15.1670000 2
18568 18572 18570 18571 4 180.0000771 4.6024000 2
18574 18575 18576 18577 1 180.0000771 15.1670000 2
18574 18575 18576 18578 1 180.0000771 15.1670000 2
18577 18575 18576 18578 4 180.0000771 4.6024000 2
18574 18575 18584 18576 4 180.0000771 4.6024000 2
18574 18575 18584 18582 1 180.0000771 15.1670000 2
18574 18575 18584 18585 1 180.0000771 15.1670000 2
18576 18575 18584 18582 1 180.0000771 15.1670000 2
18576 18575 18584 18585 1 180.0000771 15.1670000 2
18577 18576 18575 18584 1 180.0000771 15.1670000 2
18578 18576 18575 18584 1 180.0000771 15.1670000 2
18575 18576 18578 18579 1 180.0000771 15.1670000 2
18575 18576 18578 18580 1 180.0000771 15.1670000 2
18577 18576 18578 18579 1 180.0000771 15.1670000 2
18577 18576 18578 18580 1 180.0000771 15.1670000 2
18576 18578 18580 18581 1 180.0000771 15.1670000 2
18576 18578 18580 18582 1 180.0000771 15.1670000 2
18579 18578 18580 18581 1 180.0000771 15.1670000 2
18579 18578 18580 18582 1 180.0000771 15.1670000 2
18576 18580 18578 18579 4 180.0000771 4.6024000 2
18578 18580 18582 18583 1 180.0000771 15.1670000 2
18578 18580 18582 18584 1 180.0000771 15.1670000 2
18581 18580 18582 18583 1 180.0000771 15.1670000 2
18581 18580 18582 18584 1 180.0000771 15.1670000 2
18578 18582 18580 18581 4 180.0000771 4.6024000 2
18575 18582 18584 18585 4 180.0000771 4.6024000 2
18580 18582 18584 18585 1 180.0000771 15.1670000 2
18583 18582 18584 18585 1 180.0000771 15.1670000 2
18575 18584 18582 18580 1 180.0000771 15.1670000 2
18575 18584 18582 18583 1 180.0000771 15.1670000 2
18580 18584 18582 18583 4 180.0000771 4.6024000 2
18586 18587 18588 18589 1 180.0000771 15.1670000 2
18586 18587 18588 18590 1 180.0000771 15.1670000 2
18589 18587 18588 18590 4 180.0000771 4.6024000 2
18586 18587 18596 18588 4 180.0000771 4.6024000 2
18586 18587 18596 18594 1 180.0000771 15.1670000 2
18586 18587 18596 18597 1 180.0000771 15.1670000 2
18588 18587 18596 18594 1 180.0000771 15.1670000 2
18588 18587 18596 18597 1 180.0000771 15.1670000 2
18589 18588 18587 18596 1 180.0000771 15.1670000 2
18590 18588 18587 18596 1 180.0000771 15.1670000 2
18587 18588 18590 18591 1 180.0000771 15.1670000 2
18587 18588 18590 18592 1 180.0000771 15.1670000 2
18589 18588 18590 18591 1 180.0000771 15.1670000 2
18589 18588 18590 18592 1 180.0000771 15.1670000 2
18588 18590 18592 18593 1 180.0000771 15.1670000 2
18588 18590 18592 18594 1 180.0000771 15.1670000 2
18591 18590 18592 18593 1 180.0000771 15.1670000 2
18591 18590 18592 18594 1 180.0000771 15.1670000 2
18588 18592 18590 18591 4 180.0000771 4.6024000 2
18590 18592 18594 18595 1 180.0000771 15.1670000 2
18590 18592 18594 18596 1 180.0000771 15.1670000 2
18593 18592 18594 18595 1 180.0000771 15.1670000 2
18593 18592 18594 18596 1 180.0000771 15.1670000 2
18590 18594 18592 18593 4 180.0000771 4.6024000 2
18587 18594 18596 18597 4 180.0000771 4.6024000 2
18592 18594 18596 18597 1 180.0000771 15.1670000 2
18595 18594 18596 18597 1 180.0000771 15.1670000 2
18587 18596 18594 18592 1 180.0000771 15.1670000 2
18587 18596 18594 18595 1 180.0000771 15.1670000 2
18592 18596 18594 18595 4 180.0000771 4.6024000 2
18598 18599 18600 18601 1 180.0000771 15.1670000 2
18598 18599 18600 18602 1 180.0000771 15.1670000 2
18601 18599 18600 18602 4 180.0000771 4.6024000 2
18598 18599 18608 18600 4 180.0000771 4.6024000 2
18598 18599 18608 18606 1 180.0000771 15.1670000 2
18598 18599 18608 18609 1 180.0000771 15.1670000 2
18600 18599 18608 18606 1 180.0000771 15.1670000 2
18600 18599 18608 18609 1 180.0000771 15.1670000 2
18601 18600 18599 18608 1 180.0000771 15.1670000 2
18602 18600 18599 18608 1 180.0000771 15.1670000 2
18599 18600 18602 18603 1 180.0000771 15.1670000 2
18599 18600 18602 18604 1 180.0000771 15.1670000 2
18601 18600 18602 18603 1 180.0000771 15.1670000 2
18601 18600 18602 18604 1 180.0000771 15.1670000 2
18600 18602 18604 18605 1 180.0000771 15.1670000 2
18600 18602 18604 18606 1 180.0000771 15.1670000 2
18603 18602 18604 18605 1 180.0000771 15.1670000 2
18603 18602 18604 18606 1 180.0000771 15.1670000 2
18600 18604 18602 18603 4 180.0000771 4.6024000 2
18602 18604 18606 18607 1 180.0000771 15.1670000 2
18602 18604 18606 18608 1 180.0000771 15.1670000 2
18605 18604 18606 18607 1 180.0000771 15.1670000 2
18605 18604 18606 18608 1 180.0000771 15.1670000 2
18602 18606 18604 18605 4 180.0000771 4.6024000 2
18599 18606 18608 18609 4 180.0000771 4.6024000 2
18604 18606 18608 18609 1 180.0000771 15.1670000 2
18607 18606 18608 18609 1 180.0000771 15.1670000 2
18599 18608 18606 18604 1 180.0000771 15.1670000 2
18599 18608 18606 18607 1 180.0000771 15.1670000 2
18604 18608 18606 18607 4 180.0000771 4.6024000 2
18610 18611 18612 18613 1 180.0000771 15.1670000 2
18610 18611 18612 18614 1 180.0000771 15.1670000 2
18613 18611 18612 18614 4 180.0000771 4.6024000 2
18610 18611 18620 18612 4 180.0000771 4.6024000 2
18610 18611 18620 18618 1 180.0000771 15.1670000 2
18610 18611 18620 18621 1 180.0000771 15.1670000 2
18612 18611 18620 18618 1 180.0000771 15.1670000 2
18612 18611 18620 18621 1 180.0000771 15.1670000 2
18613 18612 18611 18620 1 180.0000771 15.1670000 2
18614 18612 18611 18620 1 180.0000771 15.1670000 2
18611 18612 18614 18615 1 180.0000771 15.1670000 2
18611 18612 18614 18616 1 180.0000771 15.1670000 2
18613 18612 18614 18615 1 180.0000771 15.1670000 2
18613 18612 18614 18616 1 180.0000771 15.1670000 2
18612 18614 18616 18617 1 180.0000771 15.1670000 2
18612 18614 18616 18618 1 180.0000771 15.1670000 2
18615 18614 18616 18617 1 180.0000771 15.1670000 2
18615 18614 18616 18618 1 180.0000771 15.1670000 2
18612 18616 18614 18615 4 180.0000771 4.6024000 2
18614 18616 18618 18619 1 180.0000771 15.1670000 2
18614 18616 18618 18620 1 180.0000771 15.1670000 2
18617 18616 18618 18619 1 180.0000771 15.1670000 2
18617 18616 18618 18620 1 180.0000771 15.1670000 2
18614 18618 18616 18617 4 180.0000771 4.6024000 2
18611 18618 18620 18621 4 180.0000771 4.6024000 2
18616 18618 18620 18621 1 180.0000771 15.1670000 2
18619 18618 18620 18621 1 180.0000771 15.1670000 2
18611 18620 18618 18616 1 180.0000771 15.1670000 2
18611 18620 18618 18619 1 180.0000771 15.1670000 2
18616 18620 18618 18619 4 180.0000771 4.6024000 2
18622 18623 18624 18625 1 180.0000771 15.1670000 2
18622 18623 18624 18626 1 180.0000771 15.1670000 2
18625 18623 18624 18626 4 180.0000771 4.6024000 2
18622 18623 18632 18624 4 180.0000771 4.6024000 2
18622 18623 18632 18630 1 180.0000771 15.1670000 2
18622 18623 18632 18633 1 180.0000771 15.1670000 2
18624 18623 18632 18630 1 180.0000771 15.1670000 2
18624 18623 18632 18633 1 180.0000771 15.1670000 2
18625 18624 18623 18632 1 180.0000771 15.1670000 2
18626 18624 18623 18632 1 180.0000771 15.1670000 2
18623 18624 18626 18627 1 180.0000771 15.1670000 2
18623 18624 18626 18628 1 180.0000771 15.1670000 2
18625 18624 18626 18627 1 180.0000771 15.1670000 2
18625 18624 18626 18628 1 180.0000771 15.1670000 2
18624 18626 18628 18629 1 180.0000771 15.1670000 2
18624 18626 18628 18630 1 180.0000771 15.1670000 2
18627 18626 18628 18629 1 180.0000771 15.1670000 2
18627 18626 18628 18630 1 180.0000771 15.1670000 2
18624 18628 18626 18627 4 180.0000771 4.6024000 2
18626 18628 18630 18631 1 180.0000771 15.1670000 2
18626 18628 18630 18632 1 180.0000771 15.1670000 2
18629 18628 18630 18631 1 180.0000771 15.1670000 2
18629 18628 18630 18632 1 180.0000771 15.1670000 2
18626 18630 18628 18629 4 180.0000771 4.6024000 2
18623 18630 18632 18633 4 180.0000771 4.6024000 2
18628 18630 18632 18633 1 180.0000771 15.1670000 2
18631 18630 18632 18633 1 180.0000771 15.1670000 2
18623 18632 18630 18628 1 180.0000771 15.1670000 2
18623 18632 18630 18631 1 180.0000771 15.1670000 2
18628 18632 18630 18631 4 180.0000771 4.6024000 2
18634 18635 18636 18637 1 180.0000771 15.1670000 2
18634 18635 18636 18638 1 180.0000771 15.1670000 2
18637 18635 18636 18638 4 180.0000771 4.6024000 2
18634 18635 18644 18636 4 180.0000771 4.6024000 2
18634 18635 18644 18642 1 180.0000771 15.1670000 2
18634 18635 18644 18645 1 180.0000771 15.1670000 2
18636 18635 18644 18642 1 180.0000771 15.1670000 2
18636 18635 18644 18645 1 180.0000771 15.1670000 2
18637 18636 18635 18644 1 180.0000771 15.1670000 2
18638 18636 18635 18644 1 180.0000771 15.1670000 2
18635 18636 18638 18639 1 180.0000771 15.1670000 2
18635 18636 18638 18640 1 180.0000771 15.1670000 2
18637 18636 18638 18639 1 180.0000771 15.1670000 2
18637 18636 18638 18640 1 180.0000771 15.1670000 2
18636 18638 18640 18641 1 180.0000771 15.1670000 2
18636 18638 18640 18642 1 180.0000771 15.1670000 2
18639 18638 18640 18641 1 180.0000771 15.1670000 2
18639 18638 18640 18642 1 180.0000771 15.1670000 2
18636 18640 18638 18639 4 180.0000771 4.6024000 2
18638 18640 18642 18643 1 180.0000771 15.1670000 2
18638 18640 18642 18644 1 180.0000771 15.1670000 2
18641 18640 18642 18643 1 180.0000771 15.1670000 2
18641 18640 18642 18644 1 180.0000771 15.1670000 2
18638 18642 18640 18641 4 180.0000771 4.6024000 2
18635 18642 18644 18645 4 180.0000771 4.6024000 2
18640 18642 18644 18645 1 180.0000771 15.1670000 2
18643 18642 18644 18645 1 180.0000771 15.1670000 2
18635 18644 18642 18640 1 180.0000771 15.1670000 2
18635 18644 18642 18643 1 180.0000771 15.1670000 2
18640 18644 18642 18643 4 180.0000771 4.6024000 2
18646 18647 18648 18649 1 180.0000771 15.1670000 2
18646 18647 18648 18650 1 180.0000771 15.1670000 2
18649 18647 18648 18650 4 180.0000771 4.6024000 2
18646 18647 18656 18648 4 180.0000771 4.6024000 2
18646 18647 18656 18654 1 180.0000771 15.1670000 2
18646 18647 18656 18657 1 180.0000771 15.1670000 2
18648 18647 18656 18654 1 180.0000771 15.1670000 2
18648 18647 18656 18657 1 180.0000771 15.1670000 2
18649 18648 18647 18656 1 180.0000771 15.1670000 2
18650 18648 18647 18656 1 180.0000771 15.1670000 2
18647 18648 18650 18651 1 180.0000771 15.1670000 2
18647 18648 18650 18652 1 180.0000771 15.1670000 2
18649 18648 18650 18651 1 180.0000771 15.1670000 2
18649 18648 18650 18652 1 180.0000771 15.1670000 2
18648 18650 18652 18653 1 180.0000771 15.1670000 2
18648 18650 18652 18654 1 180.0000771 15.1670000 2
18651 18650 18652 18653 1 180.0000771 15.1670000 2
18651 18650 18652 18654 1 180.0000771 15.1670000 2
18648 18652 18650 18651 4 180.0000771 4.6024000 2
18650 18652 18654 18655 1 180.0000771 15.1670000 2
18650 18652 18654 18656 1 180.0000771 15.1670000 2
18653 18652 18654 18655 1 180.0000771 15.1670000 2
18653 18652 18654 18656 1 180.0000771 15.1670000 2
18650 18654 18652 18653 4 180.0000771 4.6024000 2
18647 18654 18656 18657 4 180.0000771 4.6024000 2
18652 18654 18656 18657 1 180.0000771 15.1670000 2
18655 18654 18656 18657 1 180.0000771 15.1670000 2
18647 18656 18654 18652 1 180.0000771 15.1670000 2
18647 18656 18654 18655 1 180.0000771 15.1670000 2
18652 18656 18654 18655 4 180.0000771 4.6024000 2
18658 18659 18660 18661 1 180.0000771 15.1670000 2
18658 18659 18660 18662 1 180.0000771 15.1670000 2
18661 18659 18660 18662 4 180.0000771 4.6024000 2
18658 18659 18668 18660 4 180.0000771 4.6024000 2
18658 18659 18668 18666 1 180.0000771 15.1670000 2
18658 18659 18668 18669 1 180.0000771 15.1670000 2
18660 18659 18668 18666 1 180.0000771 15.1670000 2
18660 18659 18668 18669 1 180.0000771 15.1670000 2
18661 18660 18659 18668 1 180.0000771 15.1670000 2
18662 18660 18659 18668 1 180.0000771 15.1670000 2
18659 18660 18662 18663 1 180.0000771 15.1670000 2
18659 18660 18662 18664 1 180.0000771 15.1670000 2
18661 18660 18662 18663 1 180.0000771 15.1670000 2
18661 18660 18662 18664 1 180.0000771 15.1670000 2
18660 18662 18664 18665 1 180.0000771 15.1670000 2
18660 18662 18664 18666 1 180.0000771 15.1670000 2
18663 18662 18664 18665 1 180.0000771 15.1670000 2
18663 18662 18664 18666 1 180.0000771 15.1670000 2
18660 18664 18662 18663 4 180.0000771 4.6024000 2
18662 18664 18666 18667 1 180.0000771 15.1670000 2
18662 18664 18666 18668 1 180.0000771 15.1670000 2
18665 18664 18666 18667 1 180.0000771 15.1670000 2
18665 18664 18666 18668 1 180.0000771 15.1670000 2
18662 18666 18664 18665 4 180.0000771 4.6024000 2
18659 18666 18668 18669 4 180.0000771 4.6024000 2
18664 18666 18668 18669 1 180.0000771 15.1670000 2
18667 18666 18668 18669 1 180.0000771 15.1670000 2
18659 18668 18666 18664 1 180.0000771 15.1670000 2
18659 18668 18666 18667 1 180.0000771 15.1670000 2
18664 18668 18666 18667 4 180.0000771 4.6024000 2
18670 18671 18672 18673 1 180.0000771 15.1670000 2
18670 18671 18672 18674 1 180.0000771 15.1670000 2
18673 18671 18672 18674 4 180.0000771 4.6024000 2
18670 18671 18680 18672 4 180.0000771 4.6024000 2
18670 18671 18680 18678 1 180.0000771 15.1670000 2
18670 18671 18680 18681 1 180.0000771 15.1670000 2
18672 18671 18680 18678 1 180.0000771 15.1670000 2
18672 18671 18680 18681 1 180.0000771 15.1670000 2
18673 18672 18671 18680 1 180.0000771 15.1670000 2
18674 18672 18671 18680 1 180.0000771 15.1670000 2
18671 18672 18674 18675 1 180.0000771 15.1670000 2
18671 18672 18674 18676 1 180.0000771 15.1670000 2
18673 18672 18674 18675 1 180.0000771 15.1670000 2
18673 18672 18674 18676 1 180.0000771 15.1670000 2
18672 18674 18676 18677 1 180.0000771 15.1670000 2
18672 18674 18676 18678 1 180.0000771 15.1670000 2
18675 18674 18676 18677 1 180.0000771 15.1670000 2
18675 18674 18676 18678 1 180.0000771 15.1670000 2
18672 18676 18674 18675 4 180.0000771 4.6024000 2
18674 18676 18678 18679 1 180.0000771 15.1670000 2
18674 18676 18678 18680 1 180.0000771 15.1670000 2
18677 18676 18678 18679 1 180.0000771 15.1670000 2
18677 18676 18678 18680 1 180.0000771 15.1670000 2
18674 18678 18676 18677 4 180.0000771 4.6024000 2
18671 18678 18680 18681 4 180.0000771 4.6024000 2
18676 18678 18680 18681 1 180.0000771 15.1670000 2
18679 18678 18680 18681 1 180.0000771 15.1670000 2
18671 18680 18678 18676 1 180.0000771 15.1670000 2
18671 18680 18678 18679 1 180.0000771 15.1670000 2
18676 18680 18678 18679 4 180.0000771 4.6024000 2
18682 18683 18684 18685 1 180.0000771 15.1670000 2
18682 18683 18684 18686 1 180.0000771 15.1670000 2
18685 18683 18684 18686 4 180.0000771 4.6024000 2
18682 18683 18692 18684 4 180.0000771 4.6024000 2
18682 18683 18692 18690 1 180.0000771 15.1670000 2
18682 18683 18692 18693 1 180.0000771 15.1670000 2
18684 18683 18692 18690 1 180.0000771 15.1670000 2
18684 18683 18692 18693 1 180.0000771 15.1670000 2
18685 18684 18683 18692 1 180.0000771 15.1670000 2
18686 18684 18683 18692 1 180.0000771 15.1670000 2
18683 18684 18686 18687 1 180.0000771 15.1670000 2
18683 18684 18686 18688 1 180.0000771 15.1670000 2
18685 18684 18686 18687 1 180.0000771 15.1670000 2
18685 18684 18686 18688 1 180.0000771 15.1670000 2
18684 18686 18688 18689 1 180.0000771 15.1670000 2
18684 18686 18688 18690 1 180.0000771 15.1670000 2
18687 18686 18688 18689 1 180.0000771 15.1670000 2
18687 18686 18688 18690 1 180.0000771 15.1670000 2
18684 18688 18686 18687 4 180.0000771 4.6024000 2
18686 18688 18690 18691 1 180.0000771 15.1670000 2
18686 18688 18690 18692 1 180.0000771 15.1670000 2
18689 18688 18690 18691 1 180.0000771 15.1670000 2
18689 18688 18690 18692 1 180.0000771 15.1670000 2
18686 18690 18688 18689 4 180.0000771 4.6024000 2
18683 18690 18692 18693 4 180.0000771 4.6024000 2
18688 18690 18692 18693 1 180.0000771 15.1670000 2
18691 18690 18692 18693 1 180.0000771 15.1670000 2
18683 18692 18690 18688 1 180.0000771 15.1670000 2
18683 18692 18690 18691 1 180.0000771 15.1670000 2
18688 18692 18690 18691 4 180.0000771 4.6024000 2
18694 18695 18696 18697 1 180.0000771 15.1670000 2
18694 18695 18696 18698 1 180.0000771 15.1670000 2
18697 18695 18696 18698 4 180.0000771 4.6024000 2
18694 18695 18704 18696 4 180.0000771 4.6024000 2
18694 18695 18704 18702 1 180.0000771 15.1670000 2
18694 18695 18704 18705 1 180.0000771 15.1670000 2
18696 18695 18704 18702 1 180.0000771 15.1670000 2
18696 18695 18704 18705 1 180.0000771 15.1670000 2
18697 18696 18695 18704 1 180.0000771 15.1670000 2
18698 18696 18695 18704 1 180.0000771 15.1670000 2
18695 18696 18698 18699 1 180.0000771 15.1670000 2
18695 18696 18698 18700 1 180.0000771 15.1670000 2
18697 18696 18698 18699 1 180.0000771 15.1670000 2
18697 18696 18698 18700 1 180.0000771 15.1670000 2
18696 18698 18700 18701 1 180.0000771 15.1670000 2
18696 18698 18700 18702 1 180.0000771 15.1670000 2
18699 18698 18700 18701 1 180.0000771 15.1670000 2
18699 18698 18700 18702 1 180.0000771 15.1670000 2
18696 18700 18698 18699 4 180.0000771 4.6024000 2
18698 18700 18702 18703 1 180.0000771 15.1670000 2
18698 18700 18702 18704 1 180.0000771 15.1670000 2
18701 18700 18702 18703 1 180.0000771 15.1670000 2
18701 18700 18702 18704 1 180.0000771 15.1670000 2
18698 18702 18700 18701 4 180.0000771 4.6024000 2
18695 18702 18704 18705 4 180.0000771 4.6024000 2
18700 18702 18704 18705 1 180.0000771 15.1670000 2
18703 18702 18704 18705 1 180.0000771 15.1670000 2
18695 18704 18702 18700 1 180.0000771 15.1670000 2
18695 18704 18702 18703 1 180.0000771 15.1670000 2
18700 18704 18702 18703 4 180.0000771 4.6024000 2
18706 18707 18708 18709 1 180.0000771 15.1670000 2
18706 18707 18708 18710 1 180.0000771 15.1670000 2
18709 18707 18708 18710 4 180.0000771 4.6024000 2
18706 18707 18716 18708 4 180.0000771 4.6024000 2
18706 18707 18716 18714 1 180.0000771 15.1670000 2
18706 18707 18716 18717 1 180.0000771 15.1670000 2
18708 18707 18716 18714 1 180.0000771 15.1670000 2
18708 18707 18716 18717 1 180.0000771 15.1670000 2
18709 18708 18707 18716 1 180.0000771 15.1670000 2
18710 18708 18707 18716 1 180.0000771 15.1670000 2
18707 18708 18710 18711 1 180.0000771 15.1670000 2
18707 18708 18710 18712 1 180.0000771 15.1670000 2
18709 18708 18710 18711 1 180.0000771 15.1670000 2
18709 18708 18710 18712 1 180.0000771 15.1670000 2
18708 18710 18712 18713 1 180.0000771 15.1670000 2
18708 18710 18712 18714 1 180.0000771 15.1670000 2
18711 18710 18712 18713 1 180.0000771 15.1670000 2
18711 18710 18712 18714 1 180.0000771 15.1670000 2
18708 18712 18710 18711 4 180.0000771 4.6024000 2
18710 18712 18714 18715 1 180.0000771 15.1670000 2
18710 18712 18714 18716 1 180.0000771 15.1670000 2
18713 18712 18714 18715 1 180.0000771 15.1670000 2
18713 18712 18714 18716 1 180.0000771 15.1670000 2
18710 18714 18712 18713 4 180.0000771 4.6024000 2
18707 18714 18716 18717 4 180.0000771 4.6024000 2
18712 18714 18716 18717 1 180.0000771 15.1670000 2
18715 18714 18716 18717 1 180.0000771 15.1670000 2
18707 18716 18714 18712 1 180.0000771 15.1670000 2
18707 18716 18714 18715 1 180.0000771 15.1670000 2
18712 18716 18714 18715 4 180.0000771 4.6024000 2
18718 18719 18720 18721 1 180.0000771 15.1670000 2
18718 18719 18720 18722 1 180.0000771 15.1670000 2
18721 18719 18720 18722 4 180.0000771 4.6024000 2
18718 18719 18728 18720 4 180.0000771 4.6024000 2
18718 18719 18728 18726 1 180.0000771 15.1670000 2
18718 18719 18728 18729 1 180.0000771 15.1670000 2
18720 18719 18728 18726 1 180.0000771 15.1670000 2
18720 18719 18728 18729 1 180.0000771 15.1670000 2
18721 18720 18719 18728 1 180.0000771 15.1670000 2
18722 18720 18719 18728 1 180.0000771 15.1670000 2
18719 18720 18722 18723 1 180.0000771 15.1670000 2
18719 18720 18722 18724 1 180.0000771 15.1670000 2
18721 18720 18722 18723 1 180.0000771 15.1670000 2
18721 18720 18722 18724 1 180.0000771 15.1670000 2
18720 18722 18724 18725 1 180.0000771 15.1670000 2
18720 18722 18724 18726 1 180.0000771 15.1670000 2
18723 18722 18724 18725 1 180.0000771 15.1670000 2
18723 18722 18724 18726 1 180.0000771 15.1670000 2
18720 18724 18722 18723 4 180.0000771 4.6024000 2
18722 18724 18726 18727 1 180.0000771 15.1670000 2
18722 18724 18726 18728 1 180.0000771 15.1670000 2
18725 18724 18726 18727 1 180.0000771 15.1670000 2
18725 18724 18726 18728 1 180.0000771 15.1670000 2
18722 18726 18724 18725 4 180.0000771 4.6024000 2
18719 18726 18728 18729 4 180.0000771 4.6024000 2
18724 18726 18728 18729 1 180.0000771 15.1670000 2
18727 18726 18728 18729 1 180.0000771 15.1670000 2
18719 18728 18726 18724 1 180.0000771 15.1670000 2
18719 18728 18726 18727 1 180.0000771 15.1670000 2
18724 18728 18726 18727 4 180.0000771 4.6024000 2
18730 18731 18732 18733 1 180.0000771 15.1670000 2
18730 18731 18732 18734 1 180.0000771 15.1670000 2
18733 18731 18732 18734 4 180.0000771 4.6024000 2
18730 18731 18740 18732 4 180.0000771 4.6024000 2
18730 18731 18740 18738 1 180.0000771 15.1670000 2
18730 18731 18740 18741 1 180.0000771 15.1670000 2
18732 18731 18740 18738 1 180.0000771 15.1670000 2
18732 18731 18740 18741 1 180.0000771 15.1670000 2
18733 18732 18731 18740 1 180.0000771 15.1670000 2
18734 18732 18731 18740 1 180.0000771 15.1670000 2
18731 18732 18734 18735 1 180.0000771 15.1670000 2
18731 18732 18734 18736 1 180.0000771 15.1670000 2
18733 18732 18734 18735 1 180.0000771 15.1670000 2
18733 18732 18734 18736 1 180.0000771 15.1670000 2
18732 18734 18736 18737 1 180.0000771 15.1670000 2
18732 18734 18736 18738 1 180.0000771 15.1670000 2
18735 18734 18736 18737 1 180.0000771 15.1670000 2
18735 18734 18736 18738 1 180.0000771 15.1670000 2
18732 18736 18734 18735 4 180.0000771 4.6024000 2
18734 18736 18738 18739 1 180.0000771 15.1670000 2
18734 18736 18738 18740 1 180.0000771 15.1670000 2
18737 18736 18738 18739 1 180.0000771 15.1670000 2
18737 18736 18738 18740 1 180.0000771 15.1670000 2
18734 18738 18736 18737 4 180.0000771 4.6024000 2
18731 18738 18740 18741 4 180.0000771 4.6024000 2
18736 18738 18740 18741 1 180.0000771 15.1670000 2
18739 18738 18740 18741 1 180.0000771 15.1670000 2
18731 18740 18738 18736 1 180.0000771 15.1670000 2
18731 18740 18738 18739 1 180.0000771 15.1670000 2
18736 18740 18738 18739 4 180.0000771 4.6024000 2
18742 18743 18744 18745 1 180.0000771 15.1670000 2
18742 18743 18744 18746 1 180.0000771 15.1670000 2
18745 18743 18744 18746 4 180.0000771 4.6024000 2
18742 18743 18752 18744 4 180.0000771 4.6024000 2
18742 18743 18752 18750 1 180.0000771 15.1670000 2
18742 18743 18752 18753 1 180.0000771 15.1670000 2
18744 18743 18752 18750 1 180.0000771 15.1670000 2
18744 18743 18752 18753 1 180.0000771 15.1670000 2
18745 18744 18743 18752 1 180.0000771 15.1670000 2
18746 18744 18743 18752 1 180.0000771 15.1670000 2
18743 18744 18746 18747 1 180.0000771 15.1670000 2
18743 18744 18746 18748 1 180.0000771 15.1670000 2
18745 18744 18746 18747 1 180.0000771 15.1670000 2
18745 18744 18746 18748 1 180.0000771 15.1670000 2
18744 18746 18748 18749 1 180.0000771 15.1670000 2
18744 18746 18748 18750 1 180.0000771 15.1670000 2
18747 18746 18748 18749 1 180.0000771 15.1670000 2
18747 18746 18748 18750 1 180.0000771 15.1670000 2
18744 18748 18746 18747 4 180.0000771 4.6024000 2
18746 18748 18750 18751 1 180.0000771 15.1670000 2
18746 18748 18750 18752 1 180.0000771 15.1670000 2
18749 18748 18750 18751 1 180.0000771 15.1670000 2
18749 18748 18750 18752 1 180.0000771 15.1670000 2
18746 18750 18748 18749 4 180.0000771 4.6024000 2
18743 18750 18752 18753 4 180.0000771 4.6024000 2
18748 18750 18752 18753 1 180.0000771 15.1670000 2
18751 18750 18752 18753 1 180.0000771 15.1670000 2
18743 18752 18750 18748 1 180.0000771 15.1670000 2
18743 18752 18750 18751 1 180.0000771 15.1670000 2
18748 18752 18750 18751 4 180.0000771 4.6024000 2
18754 18755 18756 18757 1 180.0000771 15.1670000 2
18754 18755 18756 18758 1 180.0000771 15.1670000 2
18757 18755 18756 18758 4 180.0000771 4.6024000 2
18754 18755 18764 18756 4 180.0000771 4.6024000 2
18754 18755 18764 18762 1 180.0000771 15.1670000 2
18754 18755 18764 18765 1 180.0000771 15.1670000 2
18756 18755 18764 18762 1 180.0000771 15.1670000 2
18756 18755 18764 18765 1 180.0000771 15.1670000 2
18757 18756 18755 18764 1 180.0000771 15.1670000 2
18758 18756 18755 18764 1 180.0000771 15.1670000 2
18755 18756 18758 18759 1 180.0000771 15.1670000 2
18755 18756 18758 18760 1 180.0000771 15.1670000 2
18757 18756 18758 18759 1 180.0000771 15.1670000 2
18757 18756 18758 18760 1 180.0000771 15.1670000 2
18756 18758 18760 18761 1 180.0000771 15.1670000 2
18756 18758 18760 18762 1 180.0000771 15.1670000 2
18759 18758 18760 18761 1 180.0000771 15.1670000 2
18759 18758 18760 18762 1 180.0000771 15.1670000 2
18756 18760 18758 18759 4 180.0000771 4.6024000 2
18758 18760 18762 18763 1 180.0000771 15.1670000 2
18758 18760 18762 18764 1 180.0000771 15.1670000 2
18761 18760 18762 18763 1 180.0000771 15.1670000 2
18761 18760 18762 18764 1 180.0000771 15.1670000 2
18758 18762 18760 18761 4 180.0000771 4.6024000 2
18755 18762 18764 18765 4 180.0000771 4.6024000 2
18760 18762 18764 18765 1 180.0000771 15.1670000 2
18763 18762 18764 18765 1 180.0000771 15.1670000 2
18755 18764 18762 18760 1 180.0000771 15.1670000 2
18755 18764 18762 18763 1 180.0000771 15.1670000 2
18760 18764 18762 18763 4 180.0000771 4.6024000 2
18766 18767 18768 18769 1 180.0000771 15.1670000 2
18766 18767 18768 18770 1 180.0000771 15.1670000 2
18769 18767 18768 18770 4 180.0000771 4.6024000 2
18766 18767 18776 18768 4 180.0000771 4.6024000 2
18766 18767 18776 18774 1 180.0000771 15.1670000 2
18766 18767 18776 18777 1 180.0000771 15.1670000 2
18768 18767 18776 18774 1 180.0000771 15.1670000 2
18768 18767 18776 18777 1 180.0000771 15.1670000 2
18769 18768 18767 18776 1 180.0000771 15.1670000 2
18770 18768 18767 18776 1 180.0000771 15.1670000 2
18767 18768 18770 18771 1 180.0000771 15.1670000 2
18767 18768 18770 18772 1 180.0000771 15.1670000 2
18769 18768 18770 18771 1 180.0000771 15.1670000 2
18769 18768 18770 18772 1 180.0000771 15.1670000 2
18768 18770 18772 18773 1 180.0000771 15.1670000 2
18768 18770 18772 18774 1 180.0000771 15.1670000 2
18771 18770 18772 18773 1 180.0000771 15.1670000 2
18771 18770 18772 18774 1 180.0000771 15.1670000 2
18768 18772 18770 18771 4 180.0000771 4.6024000 2
18770 18772 18774 18775 1 180.0000771 15.1670000 2
18770 18772 18774 18776 1 180.0000771 15.1670000 2
18773 18772 18774 18775 1 180.0000771 15.1670000 2
18773 18772 18774 18776 1 180.0000771 15.1670000 2
18770 18774 18772 18773 4 180.0000771 4.6024000 2
18767 18774 18776 18777 4 180.0000771 4.6024000 2
18772 18774 18776 18777 1 180.0000771 15.1670000 2
18775 18774 18776 18777 1 180.0000771 15.1670000 2
18767 18776 18774 18772 1 180.0000771 15.1670000 2
18767 18776 18774 18775 1 180.0000771 15.1670000 2
18772 18776 18774 18775 4 180.0000771 4.6024000 2
18778 18779 18780 18781 1 180.0000771 15.1670000 2
18778 18779 18780 18782 1 180.0000771 15.1670000 2
18781 18779 18780 18782 4 180.0000771 4.6024000 2
18778 18779 18788 18780 4 180.0000771 4.6024000 2
18778 18779 18788 18786 1 180.0000771 15.1670000 2
18778 18779 18788 18789 1 180.0000771 15.1670000 2
18780 18779 18788 18786 1 180.0000771 15.1670000 2
18780 18779 18788 18789 1 180.0000771 15.1670000 2
18781 18780 18779 18788 1 180.0000771 15.1670000 2
18782 18780 18779 18788 1 180.0000771 15.1670000 2
18779 18780 18782 18783 1 180.0000771 15.1670000 2
18779 18780 18782 18784 1 180.0000771 15.1670000 2
18781 18780 18782 18783 1 180.0000771 15.1670000 2
18781 18780 18782 18784 1 180.0000771 15.1670000 2
18780 18782 18784 18785 1 180.0000771 15.1670000 2
18780 18782 18784 18786 1 180.0000771 15.1670000 2
18783 18782 18784 18785 1 180.0000771 15.1670000 2
18783 18782 18784 18786 1 180.0000771 15.1670000 2
18780 18784 18782 18783 4 180.0000771 4.6024000 2
18782 18784 18786 18787 1 180.0000771 15.1670000 2
18782 18784 18786 18788 1 180.0000771 15.1670000 2
18785 18784 18786 18787 1 180.0000771 15.1670000 2
18785 18784 18786 18788 1 180.0000771 15.1670000 2
18782 18786 18784 18785 4 180.0000771 4.6024000 2
18779 18786 18788 18789 4 180.0000771 4.6024000 2
18784 18786 18788 18789 1 180.0000771 15.1670000 2
18787 18786 18788 18789 1 180.0000771 15.1670000 2
18779 18788 18786 18784 1 180.0000771 15.1670000 2
18779 18788 18786 18787 1 180.0000771 15.1670000 2
18784 18788 18786 18787 4 180.0000771 4.6024000 2
18790 18791 18792 18793 1 180.0000771 15.1670000 2
18790 18791 18792 18794 1 180.0000771 15.1670000 2
18793 18791 18792 18794 4 180.0000771 4.6024000 2
18790 18791 18800 18792 4 180.0000771 4.6024000 2
18790 18791 18800 18798 1 180.0000771 15.1670000 2
18790 18791 18800 18801 1 180.0000771 15.1670000 2
18792 18791 18800 18798 1 180.0000771 15.1670000 2
18792 18791 18800 18801 1 180.0000771 15.1670000 2
18793 18792 18791 18800 1 180.0000771 15.1670000 2
18794 18792 18791 18800 1 180.0000771 15.1670000 2
18791 18792 18794 18795 1 180.0000771 15.1670000 2
18791 18792 18794 18796 1 180.0000771 15.1670000 2
18793 18792 18794 18795 1 180.0000771 15.1670000 2
18793 18792 18794 18796 1 180.0000771 15.1670000 2
18792 18794 18796 18797 1 180.0000771 15.1670000 2
18792 18794 18796 18798 1 180.0000771 15.1670000 2
18795 18794 18796 18797 1 180.0000771 15.1670000 2
18795 18794 18796 18798 1 180.0000771 15.1670000 2
18792 18796 18794 18795 4 180.0000771 4.6024000 2
18794 18796 18798 18799 1 180.0000771 15.1670000 2
18794 18796 18798 18800 1 180.0000771 15.1670000 2
18797 18796 18798 18799 1 180.0000771 15.1670000 2
18797 18796 18798 18800 1 180.0000771 15.1670000 2
18794 18798 18796 18797 4 180.0000771 4.6024000 2
18791 18798 18800 18801 4 180.0000771 4.6024000 2
18796 18798 18800 18801 1 180.0000771 15.1670000 2
18799 18798 18800 18801 1 180.0000771 15.1670000 2
18791 18800 18798 18796 1 180.0000771 15.1670000 2
18791 18800 18798 18799 1 180.0000771 15.1670000 2
18796 18800 18798 18799 4 180.0000771 4.6024000 2
18802 18803 18804 18805 1 180.0000771 15.1670000 2
18802 18803 18804 18806 1 180.0000771 15.1670000 2
18805 18803 18804 18806 4 180.0000771 4.6024000 2
18802 18803 18812 18804 4 180.0000771 4.6024000 2
18802 18803 18812 18810 1 180.0000771 15.1670000 2
18802 18803 18812 18813 1 180.0000771 15.1670000 2
18804 18803 18812 18810 1 180.0000771 15.1670000 2
18804 18803 18812 18813 1 180.0000771 15.1670000 2
18805 18804 18803 18812 1 180.0000771 15.1670000 2
18806 18804 18803 18812 1 180.0000771 15.1670000 2
18803 18804 18806 18807 1 180.0000771 15.1670000 2
18803 18804 18806 18808 1 180.0000771 15.1670000 2
18805 18804 18806 18807 1 180.0000771 15.1670000 2
18805 18804 18806 18808 1 180.0000771 15.1670000 2
18804 18806 18808 18809 1 180.0000771 15.1670000 2
18804 18806 18808 18810 1 180.0000771 15.1670000 2
18807 18806 18808 18809 1 180.0000771 15.1670000 2
18807 18806 18808 18810 1 180.0000771 15.1670000 2
18804 18808 18806 18807 4 180.0000771 4.6024000 2
18806 18808 18810 18811 1 180.0000771 15.1670000 2
18806 18808 18810 18812 1 180.0000771 15.1670000 2
18809 18808 18810 18811 1 180.0000771 15.1670000 2
18809 18808 18810 18812 1 180.0000771 15.1670000 2
18806 18810 18808 18809 4 180.0000771 4.6024000 2
18803 18810 18812 18813 4 180.0000771 4.6024000 2
18808 18810 18812 18813 1 180.0000771 15.1670000 2
18811 18810 18812 18813 1 180.0000771 15.1670000 2
18803 18812 18810 18808 1 180.0000771 15.1670000 2
18803 18812 18810 18811 1 180.0000771 15.1670000 2
18808 18812 18810 18811 4 180.0000771 4.6024000 2
18814 18815 18816 18817 1 180.0000771 15.1670000 2
18814 18815 18816 18818 1 180.0000771 15.1670000 2
18817 18815 18816 18818 4 180.0000771 4.6024000 2
18814 18815 18824 18816 4 180.0000771 4.6024000 2
18814 18815 18824 18822 1 180.0000771 15.1670000 2
18814 18815 18824 18825 1 180.0000771 15.1670000 2
18816 18815 18824 18822 1 180.0000771 15.1670000 2
18816 18815 18824 18825 1 180.0000771 15.1670000 2
18817 18816 18815 18824 1 180.0000771 15.1670000 2
18818 18816 18815 18824 1 180.0000771 15.1670000 2
18815 18816 18818 18819 1 180.0000771 15.1670000 2
18815 18816 18818 18820 1 180.0000771 15.1670000 2
18817 18816 18818 18819 1 180.0000771 15.1670000 2
18817 18816 18818 18820 1 180.0000771 15.1670000 2
18816 18818 18820 18821 1 180.0000771 15.1670000 2
18816 18818 18820 18822 1 180.0000771 15.1670000 2
18819 18818 18820 18821 1 180.0000771 15.1670000 2
18819 18818 18820 18822 1 180.0000771 15.1670000 2
18816 18820 18818 18819 4 180.0000771 4.6024000 2
18818 18820 18822 18823 1 180.0000771 15.1670000 2
18818 18820 18822 18824 1 180.0000771 15.1670000 2
18821 18820 18822 18823 1 180.0000771 15.1670000 2
18821 18820 18822 18824 1 180.0000771 15.1670000 2
18818 18822 18820 18821 4 180.0000771 4.6024000 2
18815 18822 18824 18825 4 180.0000771 4.6024000 2
18820 18822 18824 18825 1 180.0000771 15.1670000 2
18823 18822 18824 18825 1 180.0000771 15.1670000 2
18815 18824 18822 18820 1 180.0000771 15.1670000 2
18815 18824 18822 18823 1 180.0000771 15.1670000 2
18820 18824 18822 18823 4 180.0000771 4.6024000 2
18826 18827 18828 18829 1 180.0000771 15.1670000 2
18826 18827 18828 18830 1 180.0000771 15.1670000 2
18829 18827 18828 18830 4 180.0000771 4.6024000 2
18826 18827 18836 18828 4 180.0000771 4.6024000 2
18826 18827 18836 18834 1 180.0000771 15.1670000 2
18826 18827 18836 18837 1 180.0000771 15.1670000 2
18828 18827 18836 18834 1 180.0000771 15.1670000 2
18828 18827 18836 18837 1 180.0000771 15.1670000 2
18829 18828 18827 18836 1 180.0000771 15.1670000 2
18830 18828 18827 18836 1 180.0000771 15.1670000 2
18827 18828 18830 18831 1 180.0000771 15.1670000 2
18827 18828 18830 18832 1 180.0000771 15.1670000 2
18829 18828 18830 18831 1 180.0000771 15.1670000 2
18829 18828 18830 18832 1 180.0000771 15.1670000 2
18828 18830 18832 18833 1 180.0000771 15.1670000 2
18828 18830 18832 18834 1 180.0000771 15.1670000 2
18831 18830 18832 18833 1 180.0000771 15.1670000 2
18831 18830 18832 18834 1 180.0000771 15.1670000 2
18828 18832 18830 18831 4 180.0000771 4.6024000 2
18830 18832 18834 18835 1 180.0000771 15.1670000 2
18830 18832 18834 18836 1 180.0000771 15.1670000 2
18833 18832 18834 18835 1 180.0000771 15.1670000 2
18833 18832 18834 18836 1 180.0000771 15.1670000 2
18830 18834 18832 18833 4 180.0000771 4.6024000 2
18827 18834 18836 18837 4 180.0000771 4.6024000 2
18832 18834 18836 18837 1 180.0000771 15.1670000 2
18835 18834 18836 18837 1 180.0000771 15.1670000 2
18827 18836 18834 18832 1 180.0000771 15.1670000 2
18827 18836 18834 18835 1 180.0000771 15.1670000 2
18832 18836 18834 18835 4 180.0000771 4.6024000 2
18838 18839 18840 18841 1 180.0000771 15.1670000 2
18838 18839 18840 18842 1 180.0000771 15.1670000 2
18841 18839 18840 18842 4 180.0000771 4.6024000 2
18838 18839 18848 18840 4 180.0000771 4.6024000 2
18838 18839 18848 18846 1 180.0000771 15.1670000 2
18838 18839 18848 18849 1 180.0000771 15.1670000 2
18840 18839 18848 18846 1 180.0000771 15.1670000 2
18840 18839 18848 18849 1 180.0000771 15.1670000 2
18841 18840 18839 18848 1 180.0000771 15.1670000 2
18842 18840 18839 18848 1 180.0000771 15.1670000 2
18839 18840 18842 18843 1 180.0000771 15.1670000 2
18839 18840 18842 18844 1 180.0000771 15.1670000 2
18841 18840 18842 18843 1 180.0000771 15.1670000 2
18841 18840 18842 18844 1 180.0000771 15.1670000 2
18840 18842 18844 18845 1 180.0000771 15.1670000 2
18840 18842 18844 18846 1 180.0000771 15.1670000 2
18843 18842 18844 18845 1 180.0000771 15.1670000 2
18843 18842 18844 18846 1 180.0000771 15.1670000 2
18840 18844 18842 18843 4 180.0000771 4.6024000 2
18842 18844 18846 18847 1 180.0000771 15.1670000 2
18842 18844 18846 18848 1 180.0000771 15.1670000 2
18845 18844 18846 18847 1 180.0000771 15.1670000 2
18845 18844 18846 18848 1 180.0000771 15.1670000 2
18842 18846 18844 18845 4 180.0000771 4.6024000 2
18839 18846 18848 18849 4 180.0000771 4.6024000 2
18844 18846 18848 18849 1 180.0000771 15.1670000 2
18847 18846 18848 18849 1 180.0000771 15.1670000 2
18839 18848 18846 18844 1 180.0000771 15.1670000 2
18839 18848 18846 18847 1 180.0000771 15.1670000 2
18844 18848 18846 18847 4 180.0000771 4.6024000 2
18850 18851 18852 18853 1 180.0000771 15.1670000 2
18850 18851 18852 18854 1 180.0000771 15.1670000 2
18853 18851 18852 18854 4 180.0000771 4.6024000 2
18850 18851 18860 18852 4 180.0000771 4.6024000 2
18850 18851 18860 18858 1 180.0000771 15.1670000 2
18850 18851 18860 18861 1 180.0000771 15.1670000 2
18852 18851 18860 18858 1 180.0000771 15.1670000 2
18852 18851 18860 18861 1 180.0000771 15.1670000 2
18853 18852 18851 18860 1 180.0000771 15.1670000 2
18854 18852 18851 18860 1 180.0000771 15.1670000 2
18851 18852 18854 18855 1 180.0000771 15.1670000 2
18851 18852 18854 18856 1 180.0000771 15.1670000 2
18853 18852 18854 18855 1 180.0000771 15.1670000 2
18853 18852 18854 18856 1 180.0000771 15.1670000 2
18852 18854 18856 18857 1 180.0000771 15.1670000 2
18852 18854 18856 18858 1 180.0000771 15.1670000 2
18855 18854 18856 18857 1 180.0000771 15.1670000 2
18855 18854 18856 18858 1 180.0000771 15.1670000 2
18852 18856 18854 18855 4 180.0000771 4.6024000 2
18854 18856 18858 18859 1 180.0000771 15.1670000 2
18854 18856 18858 18860 1 180.0000771 15.1670000 2
18857 18856 18858 18859 1 180.0000771 15.1670000 2
18857 18856 18858 18860 1 180.0000771 15.1670000 2
18854 18858 18856 18857 4 180.0000771 4.6024000 2
18851 18858 18860 18861 4 180.0000771 4.6024000 2
18856 18858 18860 18861 1 180.0000771 15.1670000 2
18859 18858 18860 18861 1 180.0000771 15.1670000 2
18851 18860 18858 18856 1 180.0000771 15.1670000 2
18851 18860 18858 18859 1 180.0000771 15.1670000 2
18856 18860 18858 18859 4 180.0000771 4.6024000 2
18862 18863 18864 18865 1 180.0000771 15.1670000 2
18862 18863 18864 18866 1 180.0000771 15.1670000 2
18865 18863 18864 18866 4 180.0000771 4.6024000 2
18862 18863 18872 18864 4 180.0000771 4.6024000 2
18862 18863 18872 18870 1 180.0000771 15.1670000 2
18862 18863 18872 18873 1 180.0000771 15.1670000 2
18864 18863 18872 18870 1 180.0000771 15.1670000 2
18864 18863 18872 18873 1 180.0000771 15.1670000 2
18865 18864 18863 18872 1 180.0000771 15.1670000 2
18866 18864 18863 18872 1 180.0000771 15.1670000 2
18863 18864 18866 18867 1 180.0000771 15.1670000 2
18863 18864 18866 18868 1 180.0000771 15.1670000 2
18865 18864 18866 18867 1 180.0000771 15.1670000 2
18865 18864 18866 18868 1 180.0000771 15.1670000 2
18864 18866 18868 18869 1 180.0000771 15.1670000 2
18864 18866 18868 18870 1 180.0000771 15.1670000 2
18867 18866 18868 18869 1 180.0000771 15.1670000 2
18867 18866 18868 18870 1 180.0000771 15.1670000 2
18864 18868 18866 18867 4 180.0000771 4.6024000 2
18866 18868 18870 18871 1 180.0000771 15.1670000 2
18866 18868 18870 18872 1 180.0000771 15.1670000 2
18869 18868 18870 18871 1 180.0000771 15.1670000 2
18869 18868 18870 18872 1 180.0000771 15.1670000 2
18866 18870 18868 18869 4 180.0000771 4.6024000 2
18863 18870 18872 18873 4 180.0000771 4.6024000 2
18868 18870 18872 18873 1 180.0000771 15.1670000 2
18871 18870 18872 18873 1 180.0000771 15.1670000 2
18863 18872 18870 18868 1 180.0000771 15.1670000 2
18863 18872 18870 18871 1 180.0000771 15.1670000 2
18868 18872 18870 18871 4 180.0000771 4.6024000 2
18874 18875 18876 18877 1 180.0000771 15.1670000 2
18874 18875 18876 18878 1 180.0000771 15.1670000 2
18877 18875 18876 18878 4 180.0000771 4.6024000 2
18874 18875 18884 18876 4 180.0000771 4.6024000 2
18874 18875 18884 18882 1 180.0000771 15.1670000 2
18874 18875 18884 18885 1 180.0000771 15.1670000 2
18876 18875 18884 18882 1 180.0000771 15.1670000 2
18876 18875 18884 18885 1 180.0000771 15.1670000 2
18877 18876 18875 18884 1 180.0000771 15.1670000 2
18878 18876 18875 18884 1 180.0000771 15.1670000 2
18875 18876 18878 18879 1 180.0000771 15.1670000 2
18875 18876 18878 18880 1 180.0000771 15.1670000 2
18877 18876 18878 18879 1 180.0000771 15.1670000 2
18877 18876 18878 18880 1 180.0000771 15.1670000 2
18876 18878 18880 18881 1 180.0000771 15.1670000 2
18876 18878 18880 18882 1 180.0000771 15.1670000 2
18879 18878 18880 18881 1 180.0000771 15.1670000 2
18879 18878 18880 18882 1 180.0000771 15.1670000 2
18876 18880 18878 18879 4 180.0000771 4.6024000 2
18878 18880 18882 18883 1 180.0000771 15.1670000 2
18878 18880 18882 18884 1 180.0000771 15.1670000 2
18881 18880 18882 18883 1 180.0000771 15.1670000 2
18881 18880 18882 18884 1 180.0000771 15.1670000 2
18878 18882 18880 18881 4 180.0000771 4.6024000 2
18875 18882 18884 18885 4 180.0000771 4.6024000 2
18880 18882 18884 18885 1 180.0000771 15.1670000 2
18883 18882 18884 18885 1 180.0000771 15.1670000 2
18875 18884 18882 18880 1 180.0000771 15.1670000 2
18875 18884 18882 18883 1 180.0000771 15.1670000 2
18880 18884 18882 18883 4 180.0000771 4.6024000 2
18886 18887 18888 18889 1 180.0000771 15.1670000 2
18886 18887 18888 18890 1 180.0000771 15.1670000 2
18889 18887 18888 18890 4 180.0000771 4.6024000 2
18886 18887 18896 18888 4 180.0000771 4.6024000 2
18886 18887 18896 18894 1 180.0000771 15.1670000 2
18886 18887 18896 18897 1 180.0000771 15.1670000 2
18888 18887 18896 18894 1 180.0000771 15.1670000 2
18888 18887 18896 18897 1 180.0000771 15.1670000 2
18889 18888 18887 18896 1 180.0000771 15.1670000 2
18890 18888 18887 18896 1 180.0000771 15.1670000 2
18887 18888 18890 18891 1 180.0000771 15.1670000 2
18887 18888 18890 18892 1 180.0000771 15.1670000 2
18889 18888 18890 18891 1 180.0000771 15.1670000 2
18889 18888 18890 18892 1 180.0000771 15.1670000 2
18888 18890 18892 18893 1 180.0000771 15.1670000 2
18888 18890 18892 18894 1 180.0000771 15.1670000 2
18891 18890 18892 18893 1 180.0000771 15.1670000 2
18891 18890 18892 18894 1 180.0000771 15.1670000 2
18888 18892 18890 18891 4 180.0000771 4.6024000 2
18890 18892 18894 18895 1 180.0000771 15.1670000 2
18890 18892 18894 18896 1 180.0000771 15.1670000 2
18893 18892 18894 18895 1 180.0000771 15.1670000 2
18893 18892 18894 18896 1 180.0000771 15.1670000 2
18890 18894 18892 18893 4 180.0000771 4.6024000 2
18887 18894 18896 18897 4 180.0000771 4.6024000 2
18892 18894 18896 18897 1 180.0000771 15.1670000 2
18895 18894 18896 18897 1 180.0000771 15.1670000 2
18887 18896 18894 18892 1 180.0000771 15.1670000 2
18887 18896 18894 18895 1 180.0000771 15.1670000 2
18892 18896 18894 18895 4 180.0000771 4.6024000 2
18898 18899 18900 18901 1 180.0000771 15.1670000 2
18898 18899 18900 18902 1 180.0000771 15.1670000 2
18901 18899 18900 18902 4 180.0000771 4.6024000 2
18898 18899 18908 18900 4 180.0000771 4.6024000 2
18898 18899 18908 18906 1 180.0000771 15.1670000 2
18898 18899 18908 18909 1 180.0000771 15.1670000 2
18900 18899 18908 18906 1 180.0000771 15.1670000 2
18900 18899 18908 18909 1 180.0000771 15.1670000 2
18901 18900 18899 18908 1 180.0000771 15.1670000 2
18902 18900 18899 18908 1 180.0000771 15.1670000 2
18899 18900 18902 18903 1 180.0000771 15.1670000 2
18899 18900 18902 18904 1 180.0000771 15.1670000 2
18901 18900 18902 18903 1 180.0000771 15.1670000 2
18901 18900 18902 18904 1 180.0000771 15.1670000 2
18900 18902 18904 18905 1 180.0000771 15.1670000 2
18900 18902 18904 18906 1 180.0000771 15.1670000 2
18903 18902 18904 18905 1 180.0000771 15.1670000 2
18903 18902 18904 18906 1 180.0000771 15.1670000 2
18900 18904 18902 18903 4 180.0000771 4.6024000 2
18902 18904 18906 18907 1 180.0000771 15.1670000 2
18902 18904 18906 18908 1 180.0000771 15.1670000 2
18905 18904 18906 18907 1 180.0000771 15.1670000 2
18905 18904 18906 18908 1 180.0000771 15.1670000 2
18902 18906 18904 18905 4 180.0000771 4.6024000 2
18899 18906 18908 18909 4 180.0000771 4.6024000 2
18904 18906 18908 18909 1 180.0000771 15.1670000 2
18907 18906 18908 18909 1 180.0000771 15.1670000 2
18899 18908 18906 18904 1 180.0000771 15.1670000 2
18899 18908 18906 18907 1 180.0000771 15.1670000 2
18904 18908 18906 18907 4 180.0000771 4.6024000 2
18910 18911 18912 18913 1 180.0000771 15.1670000 2
18910 18911 18912 18914 1 180.0000771 15.1670000 2
18913 18911 18912 18914 4 180.0000771 4.6024000 2
18910 18911 18920 18912 4 180.0000771 4.6024000 2
18910 18911 18920 18918 1 180.0000771 15.1670000 2
18910 18911 18920 18921 1 180.0000771 15.1670000 2
18912 18911 18920 18918 1 180.0000771 15.1670000 2
18912 18911 18920 18921 1 180.0000771 15.1670000 2
18913 18912 18911 18920 1 180.0000771 15.1670000 2
18914 18912 18911 18920 1 180.0000771 15.1670000 2
18911 18912 18914 18915 1 180.0000771 15.1670000 2
18911 18912 18914 18916 1 180.0000771 15.1670000 2
18913 18912 18914 18915 1 180.0000771 15.1670000 2
18913 18912 18914 18916 1 180.0000771 15.1670000 2
18912 18914 18916 18917 1 180.0000771 15.1670000 2
18912 18914 18916 18918 1 180.0000771 15.1670000 2
18915 18914 18916 18917 1 180.0000771 15.1670000 2
18915 18914 18916 18918 1 180.0000771 15.1670000 2
18912 18916 18914 18915 4 180.0000771 4.6024000 2
18914 18916 18918 18919 1 180.0000771 15.1670000 2
18914 18916 18918 18920 1 180.0000771 15.1670000 2
18917 18916 18918 18919 1 180.0000771 15.1670000 2
18917 18916 18918 18920 1 180.0000771 15.1670000 2
18914 18918 18916 18917 4 180.0000771 4.6024000 2
18911 18918 18920 18921 4 180.0000771 4.6024000 2
18916 18918 18920 18921 1 180.0000771 15.1670000 2
18919 18918 18920 18921 1 180.0000771 15.1670000 2
18911 18920 18918 18916 1 180.0000771 15.1670000 2
18911 18920 18918 18919 1 180.0000771 15.1670000 2
18916 18920 18918 18919 4 180.0000771 4.6024000 2
18922 18923 18924 18925 1 180.0000771 15.1670000 2
18922 18923 18924 18926 1 180.0000771 15.1670000 2
18925 18923 18924 18926 4 180.0000771 4.6024000 2
18922 18923 18932 18924 4 180.0000771 4.6024000 2
18922 18923 18932 18930 1 180.0000771 15.1670000 2
18922 18923 18932 18933 1 180.0000771 15.1670000 2
18924 18923 18932 18930 1 180.0000771 15.1670000 2
18924 18923 18932 18933 1 180.0000771 15.1670000 2
18925 18924 18923 18932 1 180.0000771 15.1670000 2
18926 18924 18923 18932 1 180.0000771 15.1670000 2
18923 18924 18926 18927 1 180.0000771 15.1670000 2
18923 18924 18926 18928 1 180.0000771 15.1670000 2
18925 18924 18926 18927 1 180.0000771 15.1670000 2
18925 18924 18926 18928 1 180.0000771 15.1670000 2
18924 18926 18928 18929 1 180.0000771 15.1670000 2
18924 18926 18928 18930 1 180.0000771 15.1670000 2
18927 18926 18928 18929 1 180.0000771 15.1670000 2
18927 18926 18928 18930 1 180.0000771 15.1670000 2
18924 18928 18926 18927 4 180.0000771 4.6024000 2
18926 18928 18930 18931 1 180.0000771 15.1670000 2
18926 18928 18930 18932 1 180.0000771 15.1670000 2
18929 18928 18930 18931 1 180.0000771 15.1670000 2
18929 18928 18930 18932 1 180.0000771 15.1670000 2
18926 18930 18928 18929 4 180.0000771 4.6024000 2
18923 18930 18932 18933 4 180.0000771 4.6024000 2
18928 18930 18932 18933 1 180.0000771 15.1670000 2
18931 18930 18932 18933 1 180.0000771 15.1670000 2
18923 18932 18930 18928 1 180.0000771 15.1670000 2
18923 18932 18930 18931 1 180.0000771 15.1670000 2
18928 18932 18930 18931 4 180.0000771 4.6024000 2
18934 18935 18936 18937 1 180.0000771 15.1670000 2
18934 18935 18936 18938 1 180.0000771 15.1670000 2
18937 18935 18936 18938 4 180.0000771 4.6024000 2
18934 18935 18944 18936 4 180.0000771 4.6024000 2
18934 18935 18944 18942 1 180.0000771 15.1670000 2
18934 18935 18944 18945 1 180.0000771 15.1670000 2
18936 18935 18944 18942 1 180.0000771 15.1670000 2
18936 18935 18944 18945 1 180.0000771 15.1670000 2
18937 18936 18935 18944 1 180.0000771 15.1670000 2
18938 18936 18935 18944 1 180.0000771 15.1670000 2
18935 18936 18938 18939 1 180.0000771 15.1670000 2
18935 18936 18938 18940 1 180.0000771 15.1670000 2
18937 18936 18938 18939 1 180.0000771 15.1670000 2
18937 18936 18938 18940 1 180.0000771 15.1670000 2
18936 18938 18940 18941 1 180.0000771 15.1670000 2
18936 18938 18940 18942 1 180.0000771 15.1670000 2
18939 18938 18940 18941 1 180.0000771 15.1670000 2
18939 18938 18940 18942 1 180.0000771 15.1670000 2
18936 18940 18938 18939 4 180.0000771 4.6024000 2
18938 18940 18942 18943 1 180.0000771 15.1670000 2
18938 18940 18942 18944 1 180.0000771 15.1670000 2
18941 18940 18942 18943 1 180.0000771 15.1670000 2
18941 18940 18942 18944 1 180.0000771 15.1670000 2
18938 18942 18940 18941 4 180.0000771 4.6024000 2
18935 18942 18944 18945 4 180.0000771 4.6024000 2
18940 18942 18944 18945 1 180.0000771 15.1670000 2
18943 18942 18944 18945 1 180.0000771 15.1670000 2
18935 18944 18942 18940 1 180.0000771 15.1670000 2
18935 18944 18942 18943 1 180.0000771 15.1670000 2
18940 18944 18942 18943 4 180.0000771 4.6024000 2
18946 18947 18948 18949 1 180.0000771 15.1670000 2
18946 18947 18948 18950 1 180.0000771 15.1670000 2
18949 18947 18948 18950 4 180.0000771 4.6024000 2
18946 18947 18956 18948 4 180.0000771 4.6024000 2
18946 18947 18956 18954 1 180.0000771 15.1670000 2
18946 18947 18956 18957 1 180.0000771 15.1670000 2
18948 18947 18956 18954 1 180.0000771 15.1670000 2
18948 18947 18956 18957 1 180.0000771 15.1670000 2
18949 18948 18947 18956 1 180.0000771 15.1670000 2
18950 18948 18947 18956 1 180.0000771 15.1670000 2
18947 18948 18950 18951 1 180.0000771 15.1670000 2
18947 18948 18950 18952 1 180.0000771 15.1670000 2
18949 18948 18950 18951 1 180.0000771 15.1670000 2
18949 18948 18950 18952 1 180.0000771 15.1670000 2
18948 18950 18952 18953 1 180.0000771 15.1670000 2
18948 18950 18952 18954 1 180.0000771 15.1670000 2
18951 18950 18952 18953 1 180.0000771 15.1670000 2
18951 18950 18952 18954 1 180.0000771 15.1670000 2
18948 18952 18950 18951 4 180.0000771 4.6024000 2
18950 18952 18954 18955 1 180.0000771 15.1670000 2
18950 18952 18954 18956 1 180.0000771 15.1670000 2
18953 18952 18954 18955 1 180.0000771 15.1670000 2
18953 18952 18954 18956 1 180.0000771 15.1670000 2
18950 18954 18952 18953 4 180.0000771 4.6024000 2
18947 18954 18956 18957 4 180.0000771 4.6024000 2
18952 18954 18956 18957 1 180.0000771 15.1670000 2
18955 18954 18956 18957 1 180.0000771 15.1670000 2
18947 18956 18954 18952 1 180.0000771 15.1670000 2
18947 18956 18954 18955 1 180.0000771 15.1670000 2
18952 18956 18954 18955 4 180.0000771 4.6024000 2
18958 18959 18960 18961 1 180.0000771 15.1670000 2
18958 18959 18960 18962 1 180.0000771 15.1670000 2
18961 18959 18960 18962 4 180.0000771 4.6024000 2
18958 18959 18968 18960 4 180.0000771 4.6024000 2
18958 18959 18968 18966 1 180.0000771 15.1670000 2
18958 18959 18968 18969 1 180.0000771 15.1670000 2
18960 18959 18968 18966 1 180.0000771 15.1670000 2
18960 18959 18968 18969 1 180.0000771 15.1670000 2
18961 18960 18959 18968 1 180.0000771 15.1670000 2
18962 18960 18959 18968 1 180.0000771 15.1670000 2
18959 18960 18962 18963 1 180.0000771 15.1670000 2
18959 18960 18962 18964 1 180.0000771 15.1670000 2
18961 18960 18962 18963 1 180.0000771 15.1670000 2
18961 18960 18962 18964 1 180.0000771 15.1670000 2
18960 18962 18964 18965 1 180.0000771 15.1670000 2
18960 18962 18964 18966 1 180.0000771 15.1670000 2
18963 18962 18964 18965 1 180.0000771 15.1670000 2
18963 18962 18964 18966 1 180.0000771 15.1670000 2
18960 18964 18962 18963 4 180.0000771 4.6024000 2
18962 18964 18966 18967 1 180.0000771 15.1670000 2
18962 18964 18966 18968 1 180.0000771 15.1670000 2
18965 18964 18966 18967 1 180.0000771 15.1670000 2
18965 18964 18966 18968 1 180.0000771 15.1670000 2
18962 18966 18964 18965 4 180.0000771 4.6024000 2
18959 18966 18968 18969 4 180.0000771 4.6024000 2
18964 18966 18968 18969 1 180.0000771 15.1670000 2
18967 18966 18968 18969 1 180.0000771 15.1670000 2
18959 18968 18966 18964 1 180.0000771 15.1670000 2
18959 18968 18966 18967 1 180.0000771 15.1670000 2
18964 18968 18966 18967 4 180.0000771 4.6024000 2
18970 18971 18972 18973 1 180.0000771 15.1670000 2
18970 18971 18972 18974 1 180.0000771 15.1670000 2
18973 18971 18972 18974 4 180.0000771 4.6024000 2
18970 18971 18980 18972 4 180.0000771 4.6024000 2
18970 18971 18980 18978 1 180.0000771 15.1670000 2
18970 18971 18980 18981 1 180.0000771 15.1670000 2
18972 18971 18980 18978 1 180.0000771 15.1670000 2
18972 18971 18980 18981 1 180.0000771 15.1670000 2
18973 18972 18971 18980 1 180.0000771 15.1670000 2
18974 18972 18971 18980 1 180.0000771 15.1670000 2
18971 18972 18974 18975 1 180.0000771 15.1670000 2
18971 18972 18974 18976 1 180.0000771 15.1670000 2
18973 18972 18974 18975 1 180.0000771 15.1670000 2
18973 18972 18974 18976 1 180.0000771 15.1670000 2
18972 18974 18976 18977 1 180.0000771 15.1670000 2
18972 18974 18976 18978 1 180.0000771 15.1670000 2
18975 18974 18976 18977 1 180.0000771 15.1670000 2
18975 18974 18976 18978 1 180.0000771 15.1670000 2
18972 18976 18974 18975 4 180.0000771 4.6024000 2
18974 18976 18978 18979 1 180.0000771 15.1670000 2
18974 18976 18978 18980 1 180.0000771 15.1670000 2
18977 18976 18978 18979 1 180.0000771 15.1670000 2
18977 18976 18978 18980 1 180.0000771 15.1670000 2
18974 18978 18976 18977 4 180.0000771 4.6024000 2
18971 18978 18980 18981 4 180.0000771 4.6024000 2
18976 18978 18980 18981 1 180.0000771 15.1670000 2
18979 18978 18980 18981 1 180.0000771 15.1670000 2
18971 18980 18978 18976 1 180.0000771 15.1670000 2
18971 18980 18978 18979 1 180.0000771 15.1670000 2
18976 18980 18978 18979 4 180.0000771 4.6024000 2
18982 18983 18984 18985 1 180.0000771 15.1670000 2
18982 18983 18984 18986 1 180.0000771 15.1670000 2
18985 18983 18984 18986 4 180.0000771 4.6024000 2
18982 18983 18992 18984 4 180.0000771 4.6024000 2
18982 18983 18992 18990 1 180.0000771 15.1670000 2
18982 18983 18992 18993 1 180.0000771 15.1670000 2
18984 18983 18992 18990 1 180.0000771 15.1670000 2
18984 18983 18992 18993 1 180.0000771 15.1670000 2
18985 18984 18983 18992 1 180.0000771 15.1670000 2
18986 18984 18983 18992 1 180.0000771 15.1670000 2
18983 18984 18986 18987 1 180.0000771 15.1670000 2
18983 18984 18986 18988 1 180.0000771 15.1670000 2
18985 18984 18986 18987 1 180.0000771 15.1670000 2
18985 18984 18986 18988 1 180.0000771 15.1670000 2
18984 18986 18988 18989 1 180.0000771 15.1670000 2
18984 18986 18988 18990 1 180.0000771 15.1670000 2
18987 18986 18988 18989 1 180.0000771 15.1670000 2
18987 18986 18988 18990 1 180.0000771 15.1670000 2
18984 18988 18986 18987 4 180.0000771 4.6024000 2
18986 18988 18990 18991 1 180.0000771 15.1670000 2
18986 18988 18990 18992 1 180.0000771 15.1670000 2
18989 18988 18990 18991 1 180.0000771 15.1670000 2
18989 18988 18990 18992 1 180.0000771 15.1670000 2
18986 18990 18988 18989 4 180.0000771 4.6024000 2
18983 18990 18992 18993 4 180.0000771 4.6024000 2
18988 18990 18992 18993 1 180.0000771 15.1670000 2
18991 18990 18992 18993 1 180.0000771 15.1670000 2
18983 18992 18990 18988 1 180.0000771 15.1670000 2
18983 18992 18990 18991 1 180.0000771 15.1670000 2
18988 18992 18990 18991 4 180.0000771 4.6024000 2
18994 18995 18996 18997 1 180.0000771 15.1670000 2
18994 18995 18996 18998 1 180.0000771 15.1670000 2
18997 18995 18996 18998 4 180.0000771 4.6024000 2
18994 18995 19004 18996 4 180.0000771 4.6024000 2
18994 18995 19004 19002 1 180.0000771 15.1670000 2
18994 18995 19004 19005 1 180.0000771 15.1670000 2
18996 18995 19004 19002 1 180.0000771 15.1670000 2
18996 18995 19004 19005 1 180.0000771 15.1670000 2
18997 18996 18995 19004 1 180.0000771 15.1670000 2
18998 18996 18995 19004 1 180.0000771 15.1670000 2
18995 18996 18998 18999 1 180.0000771 15.1670000 2
18995 18996 18998 19000 1 180.0000771 15.1670000 2
18997 18996 18998 18999 1 180.0000771 15.1670000 2
18997 18996 18998 19000 1 180.0000771 15.1670000 2
18996 18998 19000 19001 1 180.0000771 15.1670000 2
18996 18998 19000 19002 1 180.0000771 15.1670000 2
18999 18998 19000 19001 1 180.0000771 15.1670000 2
18999 18998 19000 19002 1 180.0000771 15.1670000 2
18996 19000 18998 18999 4 180.0000771 4.6024000 2
18998 19000 19002 19003 1 180.0000771 15.1670000 2
18998 19000 19002 19004 1 180.0000771 15.1670000 2
19001 19000 19002 19003 1 180.0000771 15.1670000 2
19001 19000 19002 19004 1 180.0000771 15.1670000 2
18998 19002 19000 19001 4 180.0000771 4.6024000 2
18995 19002 19004 19005 4 180.0000771 4.6024000 2
19000 19002 19004 19005 1 180.0000771 15.1670000 2
19003 19002 19004 19005 1 180.0000771 15.1670000 2
18995 19004 19002 19000 1 180.0000771 15.1670000 2
18995 19004 19002 19003 1 180.0000771 15.1670000 2
19000 19004 19002 19003 4 180.0000771 4.6024000 2
19006 19007 19008 19009 1 180.0000771 15.1670000 2
19006 19007 19008 19010 1 180.0000771 15.1670000 2
19009 19007 19008 19010 4 180.0000771 4.6024000 2
19006 19007 19016 19008 4 180.0000771 4.6024000 2
19006 19007 19016 19014 1 180.0000771 15.1670000 2
19006 19007 19016 19017 1 180.0000771 15.1670000 2
19008 19007 19016 19014 1 180.0000771 15.1670000 2
19008 19007 19016 19017 1 180.0000771 15.1670000 2
19009 19008 19007 19016 1 180.0000771 15.1670000 2
19010 19008 19007 19016 1 180.0000771 15.1670000 2
19007 19008 19010 19011 1 180.0000771 15.1670000 2
19007 19008 19010 19012 1 180.0000771 15.1670000 2
19009 19008 19010 19011 1 180.0000771 15.1670000 2
19009 19008 19010 19012 1 180.0000771 15.1670000 2
19008 19010 19012 19013 1 180.0000771 15.1670000 2
19008 19010 19012 19014 1 180.0000771 15.1670000 2
19011 19010 19012 19013 1 180.0000771 15.1670000 2
19011 19010 19012 19014 1 180.0000771 15.1670000 2
19008 19012 19010 19011 4 180.0000771 4.6024000 2
19010 19012 19014 19015 1 180.0000771 15.1670000 2
19010 19012 19014 19016 1 180.0000771 15.1670000 2
19013 19012 19014 19015 1 180.0000771 15.1670000 2
19013 19012 19014 19016 1 180.0000771 15.1670000 2
19010 19014 19012 19013 4 180.0000771 4.6024000 2
19007 19014 19016 19017 4 180.0000771 4.6024000 2
19012 19014 19016 19017 1 180.0000771 15.1670000 2
19015 19014 19016 19017 1 180.0000771 15.1670000 2
19007 19016 19014 19012 1 180.0000771 15.1670000 2
19007 19016 19014 19015 1 180.0000771 15.1670000 2
19012 19016 19014 19015 4 180.0000771 4.6024000 2
19018 19019 19020 19021 1 180.0000771 15.1670000 2
19018 19019 19020 19022 1 180.0000771 15.1670000 2
19021 19019 19020 19022 4 180.0000771 4.6024000 2
19018 19019 19028 19020 4 180.0000771 4.6024000 2
19018 19019 19028 19026 1 180.0000771 15.1670000 2
19018 19019 19028 19029 1 180.0000771 15.1670000 2
19020 19019 19028 19026 1 180.0000771 15.1670000 2
19020 19019 19028 19029 1 180.0000771 15.1670000 2
19021 19020 19019 19028 1 180.0000771 15.1670000 2
19022 19020 19019 19028 1 180.0000771 15.1670000 2
19019 19020 19022 19023 1 180.0000771 15.1670000 2
19019 19020 19022 19024 1 180.0000771 15.1670000 2
19021 19020 19022 19023 1 180.0000771 15.1670000 2
19021 19020 19022 19024 1 180.0000771 15.1670000 2
19020 19022 19024 19025 1 180.0000771 15.1670000 2
19020 19022 19024 19026 1 180.0000771 15.1670000 2
19023 19022 19024 19025 1 180.0000771 15.1670000 2
19023 19022 19024 19026 1 180.0000771 15.1670000 2
19020 19024 19022 19023 4 180.0000771 4.6024000 2
19022 19024 19026 19027 1 180.0000771 15.1670000 2
19022 19024 19026 19028 1 180.0000771 15.1670000 2
19025 19024 19026 19027 1 180.0000771 15.1670000 2
19025 19024 19026 19028 1 180.0000771 15.1670000 2
19022 19026 19024 19025 4 180.0000771 4.6024000 2
19019 19026 19028 19029 4 180.0000771 4.6024000 2
19024 19026 19028 19029 1 180.0000771 15.1670000 2
19027 19026 19028 19029 1 180.0000771 15.1670000 2
19019 19028 19026 19024 1 180.0000771 15.1670000 2
19019 19028 19026 19027 1 180.0000771 15.1670000 2
19024 19028 19026 19027 4 180.0000771 4.6024000 2
19030 19031 19032 19033 1 180.0000771 15.1670000 2
19030 19031 19032 19034 1 180.0000771 15.1670000 2
19033 19031 19032 19034 4 180.0000771 4.6024000 2
19030 19031 19040 19032 4 180.0000771 4.6024000 2
19030 19031 19040 19038 1 180.0000771 15.1670000 2
19030 19031 19040 19041 1 180.0000771 15.1670000 2
19032 19031 19040 19038 1 180.0000771 15.1670000 2
19032 19031 19040 19041 1 180.0000771 15.1670000 2
19033 19032 19031 19040 1 180.0000771 15.1670000 2
19034 19032 19031 19040 1 180.0000771 15.1670000 2
19031 19032 19034 19035 1 180.0000771 15.1670000 2
19031 19032 19034 19036 1 180.0000771 15.1670000 2
19033 19032 19034 19035 1 180.0000771 15.1670000 2
19033 19032 19034 19036 1 180.0000771 15.1670000 2
19032 19034 19036 19037 1 180.0000771 15.1670000 2
19032 19034 19036 19038 1 180.0000771 15.1670000 2
19035 19034 19036 19037 1 180.0000771 15.1670000 2
19035 19034 19036 19038 1 180.0000771 15.1670000 2
19032 19036 19034 19035 4 180.0000771 4.6024000 2
19034 19036 19038 19039 1 180.0000771 15.1670000 2
19034 19036 19038 19040 1 180.0000771 15.1670000 2
19037 19036 19038 19039 1 180.0000771 15.1670000 2
19037 19036 19038 19040 1 180.0000771 15.1670000 2
19034 19038 19036 19037 4 180.0000771 4.6024000 2
19031 19038 19040 19041 4 180.0000771 4.6024000 2
19036 19038 19040 19041 1 180.0000771 15.1670000 2
19039 19038 19040 19041 1 180.0000771 15.1670000 2
19031 19040 19038 19036 1 180.0000771 15.1670000 2
19031 19040 19038 19039 1 180.0000771 15.1670000 2
19036 19040 19038 19039 4 180.0000771 4.6024000 2
19042 19043 19044 19045 1 180.0000771 15.1670000 2
19042 19043 19044 19046 1 180.0000771 15.1670000 2
19045 19043 19044 19046 4 180.0000771 4.6024000 2
19042 19043 19052 19044 4 180.0000771 4.6024000 2
19042 19043 19052 19050 1 180.0000771 15.1670000 2
19042 19043 19052 19053 1 180.0000771 15.1670000 2
19044 19043 19052 19050 1 180.0000771 15.1670000 2
19044 19043 19052 19053 1 180.0000771 15.1670000 2
19045 19044 19043 19052 1 180.0000771 15.1670000 2
19046 19044 19043 19052 1 180.0000771 15.1670000 2
19043 19044 19046 19047 1 180.0000771 15.1670000 2
19043 19044 19046 19048 1 180.0000771 15.1670000 2
19045 19044 19046 19047 1 180.0000771 15.1670000 2
19045 19044 19046 19048 1 180.0000771 15.1670000 2
19044 19046 19048 19049 1 180.0000771 15.1670000 2
19044 19046 19048 19050 1 180.0000771 15.1670000 2
19047 19046 19048 19049 1 180.0000771 15.1670000 2
19047 19046 19048 19050 1 180.0000771 15.1670000 2
19044 19048 19046 19047 4 180.0000771 4.6024000 2
19046 19048 19050 19051 1 180.0000771 15.1670000 2
19046 19048 19050 19052 1 180.0000771 15.1670000 2
19049 19048 19050 19051 1 180.0000771 15.1670000 2
19049 19048 19050 19052 1 180.0000771 15.1670000 2
19046 19050 19048 19049 4 180.0000771 4.6024000 2
19043 19050 19052 19053 4 180.0000771 4.6024000 2
19048 19050 19052 19053 1 180.0000771 15.1670000 2
19051 19050 19052 19053 1 180.0000771 15.1670000 2
19043 19052 19050 19048 1 180.0000771 15.1670000 2
19043 19052 19050 19051 1 180.0000771 15.1670000 2
19048 19052 19050 19051 4 180.0000771 4.6024000 2
19054 19055 19056 19057 1 180.0000771 15.1670000 2
19054 19055 19056 19058 1 180.0000771 15.1670000 2
19057 19055 19056 19058 4 180.0000771 4.6024000 2
19054 19055 19064 19056 4 180.0000771 4.6024000 2
19054 19055 19064 19062 1 180.0000771 15.1670000 2
19054 19055 19064 19065 1 180.0000771 15.1670000 2
19056 19055 19064 19062 1 180.0000771 15.1670000 2
19056 19055 19064 19065 1 180.0000771 15.1670000 2
19057 19056 19055 19064 1 180.0000771 15.1670000 2
19058 19056 19055 19064 1 180.0000771 15.1670000 2
19055 19056 19058 19059 1 180.0000771 15.1670000 2
19055 19056 19058 19060 1 180.0000771 15.1670000 2
19057 19056 19058 19059 1 180.0000771 15.1670000 2
19057 19056 19058 19060 1 180.0000771 15.1670000 2
19056 19058 19060 19061 1 180.0000771 15.1670000 2
19056 19058 19060 19062 1 180.0000771 15.1670000 2
19059 19058 19060 19061 1 180.0000771 15.1670000 2
19059 19058 19060 19062 1 180.0000771 15.1670000 2
19056 19060 19058 19059 4 180.0000771 4.6024000 2
19058 19060 19062 19063 1 180.0000771 15.1670000 2
19058 19060 19062 19064 1 180.0000771 15.1670000 2
19061 19060 19062 19063 1 180.0000771 15.1670000 2
19061 19060 19062 19064 1 180.0000771 15.1670000 2
19058 19062 19060 19061 4 180.0000771 4.6024000 2
19055 19062 19064 19065 4 180.0000771 4.6024000 2
19060 19062 19064 19065 1 180.0000771 15.1670000 2
19063 19062 19064 19065 1 180.0000771 15.1670000 2
19055 19064 19062 19060 1 180.0000771 15.1670000 2
19055 19064 19062 19063 1 180.0000771 15.1670000 2
19060 19064 19062 19063 4 180.0000771 4.6024000 2
19066 19067 19068 19069 1 180.0000771 15.1670000 2
19066 19067 19068 19070 1 180.0000771 15.1670000 2
19069 19067 19068 19070 4 180.0000771 4.6024000 2
19066 19067 19076 19068 4 180.0000771 4.6024000 2
19066 19067 19076 19074 1 180.0000771 15.1670000 2
19066 19067 19076 19077 1 180.0000771 15.1670000 2
19068 19067 19076 19074 1 180.0000771 15.1670000 2
19068 19067 19076 19077 1 180.0000771 15.1670000 2
19069 19068 19067 19076 1 180.0000771 15.1670000 2
19070 19068 19067 19076 1 180.0000771 15.1670000 2
19067 19068 19070 19071 1 180.0000771 15.1670000 2
19067 19068 19070 19072 1 180.0000771 15.1670000 2
19069 19068 19070 19071 1 180.0000771 15.1670000 2
19069 19068 19070 19072 1 180.0000771 15.1670000 2
19068 19070 19072 19073 1 180.0000771 15.1670000 2
19068 19070 19072 19074 1 180.0000771 15.1670000 2
19071 19070 19072 19073 1 180.0000771 15.1670000 2
19071 19070 19072 19074 1 180.0000771 15.1670000 2
19068 19072 19070 19071 4 180.0000771 4.6024000 2
19070 19072 19074 19075 1 180.0000771 15.1670000 2
19070 19072 19074 19076 1 180.0000771 15.1670000 2
19073 19072 19074 19075 1 180.0000771 15.1670000 2
19073 19072 19074 19076 1 180.0000771 15.1670000 2
19070 19074 19072 19073 4 180.0000771 4.6024000 2
19067 19074 19076 19077 4 180.0000771 4.6024000 2
19072 19074 19076 19077 1 180.0000771 15.1670000 2
19075 19074 19076 19077 1 180.0000771 15.1670000 2
19067 19076 19074 19072 1 180.0000771 15.1670000 2
19067 19076 19074 19075 1 180.0000771 15.1670000 2
19072 19076 19074 19075 4 180.0000771 4.6024000 2
19078 19079 19080 19081 1 180.0000771 15.1670000 2
19078 19079 19080 19082 1 180.0000771 15.1670000 2
19081 19079 19080 19082 4 180.0000771 4.6024000 2
19078 19079 19088 19080 4 180.0000771 4.6024000 2
19078 19079 19088 19086 1 180.0000771 15.1670000 2
19078 19079 19088 19089 1 180.0000771 15.1670000 2
19080 19079 19088 19086 1 180.0000771 15.1670000 2
19080 19079 19088 19089 1 180.0000771 15.1670000 2
19081 19080 19079 19088 1 180.0000771 15.1670000 2
19082 19080 19079 19088 1 180.0000771 15.1670000 2
19079 19080 19082 19083 1 180.0000771 15.1670000 2
19079 19080 19082 19084 1 180.0000771 15.1670000 2
19081 19080 19082 19083 1 180.0000771 15.1670000 2
19081 19080 19082 19084 1 180.0000771 15.1670000 2
19080 19082 19084 19085 1 180.0000771 15.1670000 2
19080 19082 19084 19086 1 180.0000771 15.1670000 2
19083 19082 19084 19085 1 180.0000771 15.1670000 2
19083 19082 19084 19086 1 180.0000771 15.1670000 2
19080 19084 19082 19083 4 180.0000771 4.6024000 2
19082 19084 19086 19087 1 180.0000771 15.1670000 2
19082 19084 19086 19088 1 180.0000771 15.1670000 2
19085 19084 19086 19087 1 180.0000771 15.1670000 2
19085 19084 19086 19088 1 180.0000771 15.1670000 2
19082 19086 19084 19085 4 180.0000771 4.6024000 2
19079 19086 19088 19089 4 180.0000771 4.6024000 2
19084 19086 19088 19089 1 180.0000771 15.1670000 2
19087 19086 19088 19089 1 180.0000771 15.1670000 2
19079 19088 19086 19084 1 180.0000771 15.1670000 2
19079 19088 19086 19087 1 180.0000771 15.1670000 2
19084 19088 19086 19087 4 180.0000771 4.6024000 2
19090 19091 19092 19093 1 180.0000771 15.1670000 2
19090 19091 19092 19094 1 180.0000771 15.1670000 2
19093 19091 19092 19094 4 180.0000771 4.6024000 2
19090 19091 19100 19092 4 180.0000771 4.6024000 2
19090 19091 19100 19098 1 180.0000771 15.1670000 2
19090 19091 19100 19101 1 180.0000771 15.1670000 2
19092 19091 19100 19098 1 180.0000771 15.1670000 2
19092 19091 19100 19101 1 180.0000771 15.1670000 2
19093 19092 19091 19100 1 180.0000771 15.1670000 2
19094 19092 19091 19100 1 180.0000771 15.1670000 2
19091 19092 19094 19095 1 180.0000771 15.1670000 2
19091 19092 19094 19096 1 180.0000771 15.1670000 2
19093 19092 19094 19095 1 180.0000771 15.1670000 2
19093 19092 19094 19096 1 180.0000771 15.1670000 2
19092 19094 19096 19097 1 180.0000771 15.1670000 2
19092 19094 19096 19098 1 180.0000771 15.1670000 2
19095 19094 19096 19097 1 180.0000771 15.1670000 2
19095 19094 19096 19098 1 180.0000771 15.1670000 2
19092 19096 19094 19095 4 180.0000771 4.6024000 2
19094 19096 19098 19099 1 180.0000771 15.1670000 2
19094 19096 19098 19100 1 180.0000771 15.1670000 2
19097 19096 19098 19099 1 180.0000771 15.1670000 2
19097 19096 19098 19100 1 180.0000771 15.1670000 2
19094 19098 19096 19097 4 180.0000771 4.6024000 2
19091 19098 19100 19101 4 180.0000771 4.6024000 2
19096 19098 19100 19101 1 180.0000771 15.1670000 2
19099 19098 19100 19101 1 180.0000771 15.1670000 2
19091 19100 19098 19096 1 180.0000771 15.1670000 2
19091 19100 19098 19099 1 180.0000771 15.1670000 2
19096 19100 19098 19099 4 180.0000771 4.6024000 2
19102 19103 19104 19105 1 180.0000771 15.1670000 2
19102 19103 19104 19106 1 180.0000771 15.1670000 2
19105 19103 19104 19106 4 180.0000771 4.6024000 2
19102 19103 19112 19104 4 180.0000771 4.6024000 2
19102 19103 19112 19110 1 180.0000771 15.1670000 2
19102 19103 19112 19113 1 180.0000771 15.1670000 2
19104 19103 19112 19110 1 180.0000771 15.1670000 2
19104 19103 19112 19113 1 180.0000771 15.1670000 2
19105 19104 19103 19112 1 180.0000771 15.1670000 2
19106 19104 19103 19112 1 180.0000771 15.1670000 2
19103 19104 19106 19107 1 180.0000771 15.1670000 2
19103 19104 19106 19108 1 180.0000771 15.1670000 2
19105 19104 19106 19107 1 180.0000771 15.1670000 2
19105 19104 19106 19108 1 180.0000771 15.1670000 2
19104 19106 19108 19109 1 180.0000771 15.1670000 2
19104 19106 19108 19110 1 180.0000771 15.1670000 2
19107 19106 19108 19109 1 180.0000771 15.1670000 2
19107 19106 19108 19110 1 180.0000771 15.1670000 2
19104 19108 19106 19107 4 180.0000771 4.6024000 2
19106 19108 19110 19111 1 180.0000771 15.1670000 2
19106 19108 19110 19112 1 180.0000771 15.1670000 2
19109 19108 19110 19111 1 180.0000771 15.1670000 2
19109 19108 19110 19112 1 180.0000771 15.1670000 2
19106 19110 19108 19109 4 180.0000771 4.6024000 2
19103 19110 19112 19113 4 180.0000771 4.6024000 2
19108 19110 19112 19113 1 180.0000771 15.1670000 2
19111 19110 19112 19113 1 180.0000771 15.1670000 2
19103 19112 19110 19108 1 180.0000771 15.1670000 2
19103 19112 19110 19111 1 180.0000771 15.1670000 2
19108 19112 19110 19111 4 180.0000771 4.6024000 2
19114 19115 19116 19117 1 180.0000771 15.1670000 2
19114 19115 19116 19118 1 180.0000771 15.1670000 2
19117 19115 19116 19118 4 180.0000771 4.6024000 2
19114 19115 19124 19116 4 180.0000771 4.6024000 2
19114 19115 19124 19122 1 180.0000771 15.1670000 2
19114 19115 19124 19125 1 180.0000771 15.1670000 2
19116 19115 19124 19122 1 180.0000771 15.1670000 2
19116 19115 19124 19125 1 180.0000771 15.1670000 2
19117 19116 19115 19124 1 180.0000771 15.1670000 2
19118 19116 19115 19124 1 180.0000771 15.1670000 2
19115 19116 19118 19119 1 180.0000771 15.1670000 2
19115 19116 19118 19120 1 180.0000771 15.1670000 2
19117 19116 19118 19119 1 180.0000771 15.1670000 2
19117 19116 19118 19120 1 180.0000771 15.1670000 2
19116 19118 19120 19121 1 180.0000771 15.1670000 2
19116 19118 19120 19122 1 180.0000771 15.1670000 2
19119 19118 19120 19121 1 180.0000771 15.1670000 2
19119 19118 19120 19122 1 180.0000771 15.1670000 2
19116 19120 19118 19119 4 180.0000771 4.6024000 2
19118 19120 19122 19123 1 180.0000771 15.1670000 2
19118 19120 19122 19124 1 180.0000771 15.1670000 2
19121 19120 19122 19123 1 180.0000771 15.1670000 2
19121 19120 19122 19124 1 180.0000771 15.1670000 2
19118 19122 19120 19121 4 180.0000771 4.6024000 2
19115 19122 19124 19125 4 180.0000771 4.6024000 2
19120 19122 19124 19125 1 180.0000771 15.1670000 2
19123 19122 19124 19125 1 180.0000771 15.1670000 2
19115 19124 19122 19120 1 180.0000771 15.1670000 2
19115 19124 19122 19123 1 180.0000771 15.1670000 2
19120 19124 19122 19123 4 180.0000771 4.6024000 2
19126 19127 19128 19129 1 180.0000771 15.1670000 2
19126 19127 19128 19130 1 180.0000771 15.1670000 2
19129 19127 19128 19130 4 180.0000771 4.6024000 2
19126 19127 19136 19128 4 180.0000771 4.6024000 2
19126 19127 19136 19134 1 180.0000771 15.1670000 2
19126 19127 19136 19137 1 180.0000771 15.1670000 2
19128 19127 19136 19134 1 180.0000771 15.1670000 2
19128 19127 19136 19137 1 180.0000771 15.1670000 2
19129 19128 19127 19136 1 180.0000771 15.1670000 2
19130 19128 19127 19136 1 180.0000771 15.1670000 2
19127 19128 19130 19131 1 180.0000771 15.1670000 2
19127 19128 19130 19132 1 180.0000771 15.1670000 2
19129 19128 19130 19131 1 180.0000771 15.1670000 2
19129 19128 19130 19132 1 180.0000771 15.1670000 2
19128 19130 19132 19133 1 180.0000771 15.1670000 2
19128 19130 19132 19134 1 180.0000771 15.1670000 2
19131 19130 19132 19133 1 180.0000771 15.1670000 2
19131 19130 19132 19134 1 180.0000771 15.1670000 2
19128 19132 19130 19131 4 180.0000771 4.6024000 2
19130 19132 19134 19135 1 180.0000771 15.1670000 2
19130 19132 19134 19136 1 180.0000771 15.1670000 2
19133 19132 19134 19135 1 180.0000771 15.1670000 2
19133 19132 19134 19136 1 180.0000771 15.1670000 2
19130 19134 19132 19133 4 180.0000771 4.6024000 2
19127 19134 19136 19137 4 180.0000771 4.6024000 2
19132 19134 19136 19137 1 180.0000771 15.1670000 2
19135 19134 19136 19137 1 180.0000771 15.1670000 2
19127 19136 19134 19132 1 180.0000771 15.1670000 2
19127 19136 19134 19135 1 180.0000771 15.1670000 2
19132 19136 19134 19135 4 180.0000771 4.6024000 2
19138 19139 19140 19141 1 180.0000771 15.1670000 2
19138 19139 19140 19142 1 180.0000771 15.1670000 2
19141 19139 19140 19142 4 180.0000771 4.6024000 2
19138 19139 19148 19140 4 180.0000771 4.6024000 2
19138 19139 19148 19146 1 180.0000771 15.1670000 2
19138 19139 19148 19149 1 180.0000771 15.1670000 2
19140 19139 19148 19146 1 180.0000771 15.1670000 2
19140 19139 19148 19149 1 180.0000771 15.1670000 2
19141 19140 19139 19148 1 180.0000771 15.1670000 2
19142 19140 19139 19148 1 180.0000771 15.1670000 2
19139 19140 19142 19143 1 180.0000771 15.1670000 2
19139 19140 19142 19144 1 180.0000771 15.1670000 2
19141 19140 19142 19143 1 180.0000771 15.1670000 2
19141 19140 19142 19144 1 180.0000771 15.1670000 2
19140 19142 19144 19145 1 180.0000771 15.1670000 2
19140 19142 19144 19146 1 180.0000771 15.1670000 2
19143 19142 19144 19145 1 180.0000771 15.1670000 2
19143 19142 19144 19146 1 180.0000771 15.1670000 2
19140 19144 19142 19143 4 180.0000771 4.6024000 2
19142 19144 19146 19147 1 180.0000771 15.1670000 2
19142 19144 19146 19148 1 180.0000771 15.1670000 2
19145 19144 19146 19147 1 180.0000771 15.1670000 2
19145 19144 19146 19148 1 180.0000771 15.1670000 2
19142 19146 19144 19145 4 180.0000771 4.6024000 2
19139 19146 19148 19149 4 180.0000771 4.6024000 2
19144 19146 19148 19149 1 180.0000771 15.1670000 2
19147 19146 19148 19149 1 180.0000771 15.1670000 2
19139 19148 19146 19144 1 180.0000771 15.1670000 2
19139 19148 19146 19147 1 180.0000771 15.1670000 2
19144 19148 19146 19147 4 180.0000771 4.6024000 2
19150 19151 19152 19153 1 180.0000771 15.1670000 2
19150 19151 19152 19154 1 180.0000771 15.1670000 2
19153 19151 19152 19154 4 180.0000771 4.6024000 2
19150 19151 19160 19152 4 180.0000771 4.6024000 2
19150 19151 19160 19158 1 180.0000771 15.1670000 2
19150 19151 19160 19161 1 180.0000771 15.1670000 2
19152 19151 19160 19158 1 180.0000771 15.1670000 2
19152 19151 19160 19161 1 180.0000771 15.1670000 2
19153 19152 19151 19160 1 180.0000771 15.1670000 2
19154 19152 19151 19160 1 180.0000771 15.1670000 2
19151 19152 19154 19155 1 180.0000771 15.1670000 2
19151 19152 19154 19156 1 180.0000771 15.1670000 2
19153 19152 19154 19155 1 180.0000771 15.1670000 2
19153 19152 19154 19156 1 180.0000771 15.1670000 2
19152 19154 19156 19157 1 180.0000771 15.1670000 2
19152 19154 19156 19158 1 180.0000771 15.1670000 2
19155 19154 19156 19157 1 180.0000771 15.1670000 2
19155 19154 19156 19158 1 180.0000771 15.1670000 2
19152 19156 19154 19155 4 180.0000771 4.6024000 2
19154 19156 19158 19159 1 180.0000771 15.1670000 2
19154 19156 19158 19160 1 180.0000771 15.1670000 2
19157 19156 19158 19159 1 180.0000771 15.1670000 2
19157 19156 19158 19160 1 180.0000771 15.1670000 2
19154 19158 19156 19157 4 180.0000771 4.6024000 2
19151 19158 19160 19161 4 180.0000771 4.6024000 2
19156 19158 19160 19161 1 180.0000771 15.1670000 2
19159 19158 19160 19161 1 180.0000771 15.1670000 2
19151 19160 19158 19156 1 180.0000771 15.1670000 2
19151 19160 19158 19159 1 180.0000771 15.1670000 2
19156 19160 19158 19159 4 180.0000771 4.6024000 2
19162 19163 19164 19165 1 180.0000771 15.1670000 2
19162 19163 19164 19166 1 180.0000771 15.1670000 2
19165 19163 19164 19166 4 180.0000771 4.6024000 2
19162 19163 19172 19164 4 180.0000771 4.6024000 2
19162 19163 19172 19170 1 180.0000771 15.1670000 2
19162 19163 19172 19173 1 180.0000771 15.1670000 2
19164 19163 19172 19170 1 180.0000771 15.1670000 2
19164 19163 19172 19173 1 180.0000771 15.1670000 2
19165 19164 19163 19172 1 180.0000771 15.1670000 2
19166 19164 19163 19172 1 180.0000771 15.1670000 2
19163 19164 19166 19167 1 180.0000771 15.1670000 2
19163 19164 19166 19168 1 180.0000771 15.1670000 2
19165 19164 19166 19167 1 180.0000771 15.1670000 2
19165 19164 19166 19168 1 180.0000771 15.1670000 2
19164 19166 19168 19169 1 180.0000771 15.1670000 2
19164 19166 19168 19170 1 180.0000771 15.1670000 2
19167 19166 19168 19169 1 180.0000771 15.1670000 2
19167 19166 19168 19170 1 180.0000771 15.1670000 2
19164 19168 19166 19167 4 180.0000771 4.6024000 2
19166 19168 19170 19171 1 180.0000771 15.1670000 2
19166 19168 19170 19172 1 180.0000771 15.1670000 2
19169 19168 19170 19171 1 180.0000771 15.1670000 2
19169 19168 19170 19172 1 180.0000771 15.1670000 2
19166 19170 19168 19169 4 180.0000771 4.6024000 2
19163 19170 19172 19173 4 180.0000771 4.6024000 2
19168 19170 19172 19173 1 180.0000771 15.1670000 2
19171 19170 19172 19173 1 180.0000771 15.1670000 2
19163 19172 19170 19168 1 180.0000771 15.1670000 2
19163 19172 19170 19171 1 180.0000771 15.1670000 2
19168 19172 19170 19171 4 180.0000771 4.6024000 2
19174 19175 19176 19177 1 180.0000771 15.1670000 2
19174 19175 19176 19178 1 180.0000771 15.1670000 2
19177 19175 19176 19178 4 180.0000771 4.6024000 2
19174 19175 19184 19176 4 180.0000771 4.6024000 2
19174 19175 19184 19182 1 180.0000771 15.1670000 2
19174 19175 19184 19185 1 180.0000771 15.1670000 2
19176 19175 19184 19182 1 180.0000771 15.1670000 2
19176 19175 19184 19185 1 180.0000771 15.1670000 2
19177 19176 19175 19184 1 180.0000771 15.1670000 2
19178 19176 19175 19184 1 180.0000771 15.1670000 2
19175 19176 19178 19179 1 180.0000771 15.1670000 2
19175 19176 19178 19180 1 180.0000771 15.1670000 2
19177 19176 19178 19179 1 180.0000771 15.1670000 2
19177 19176 19178 19180 1 180.0000771 15.1670000 2
19176 19178 19180 19181 1 180.0000771 15.1670000 2
19176 19178 19180 19182 1 180.0000771 15.1670000 2
19179 19178 19180 19181 1 180.0000771 15.1670000 2
19179 19178 19180 19182 1 180.0000771 15.1670000 2
19176 19180 19178 19179 4 180.0000771 4.6024000 2
19178 19180 19182 19183 1 180.0000771 15.1670000 2
19178 19180 19182 19184 1 180.0000771 15.1670000 2
19181 19180 19182 19183 1 180.0000771 15.1670000 2
19181 19180 19182 19184 1 180.0000771 15.1670000 2
19178 19182 19180 19181 4 180.0000771 4.6024000 2
19175 19182 19184 19185 4 180.0000771 4.6024000 2
19180 19182 19184 19185 1 180.0000771 15.1670000 2
19183 19182 19184 19185 1 180.0000771 15.1670000 2
19175 19184 19182 19180 1 180.0000771 15.1670000 2
19175 19184 19182 19183 1 180.0000771 15.1670000 2
19180 19184 19182 19183 4 180.0000771 4.6024000 2
19186 19187 19188 19189 1 180.0000771 15.1670000 2
19186 19187 19188 19190 1 180.0000771 15.1670000 2
19189 19187 19188 19190 4 180.0000771 4.6024000 2
19186 19187 19196 19188 4 180.0000771 4.6024000 2
19186 19187 19196 19194 1 180.0000771 15.1670000 2
19186 19187 19196 19197 1 180.0000771 15.1670000 2
19188 19187 19196 19194 1 180.0000771 15.1670000 2
19188 19187 19196 19197 1 180.0000771 15.1670000 2
19189 19188 19187 19196 1 180.0000771 15.1670000 2
19190 19188 19187 19196 1 180.0000771 15.1670000 2
19187 19188 19190 19191 1 180.0000771 15.1670000 2
19187 19188 19190 19192 1 180.0000771 15.1670000 2
19189 19188 19190 19191 1 180.0000771 15.1670000 2
19189 19188 19190 19192 1 180.0000771 15.1670000 2
19188 19190 19192 19193 1 180.0000771 15.1670000 2
19188 19190 19192 19194 1 180.0000771 15.1670000 2
19191 19190 19192 19193 1 180.0000771 15.1670000 2
19191 19190 19192 19194 1 180.0000771 15.1670000 2
19188 19192 19190 19191 4 180.0000771 4.6024000 2
19190 19192 19194 19195 1 180.0000771 15.1670000 2
19190 19192 19194 19196 1 180.0000771 15.1670000 2
19193 19192 19194 19195 1 180.0000771 15.1670000 2
19193 19192 19194 19196 1 180.0000771 15.1670000 2
19190 19194 19192 19193 4 180.0000771 4.6024000 2
19187 19194 19196 19197 4 180.0000771 4.6024000 2
19192 19194 19196 19197 1 180.0000771 15.1670000 2
19195 19194 19196 19197 1 180.0000771 15.1670000 2
19187 19196 19194 19192 1 180.0000771 15.1670000 2
19187 19196 19194 19195 1 180.0000771 15.1670000 2
19192 19196 19194 19195 4 180.0000771 4.6024000 2
19198 19199 19200 19201 1 180.0000771 15.1670000 2
19198 19199 19200 19202 1 180.0000771 15.1670000 2
19201 19199 19200 19202 4 180.0000771 4.6024000 2
19198 19199 19208 19200 4 180.0000771 4.6024000 2
19198 19199 19208 19206 1 180.0000771 15.1670000 2
19198 19199 19208 19209 1 180.0000771 15.1670000 2
19200 19199 19208 19206 1 180.0000771 15.1670000 2
19200 19199 19208 19209 1 180.0000771 15.1670000 2
19201 19200 19199 19208 1 180.0000771 15.1670000 2
19202 19200 19199 19208 1 180.0000771 15.1670000 2
19199 19200 19202 19203 1 180.0000771 15.1670000 2
19199 19200 19202 19204 1 180.0000771 15.1670000 2
19201 19200 19202 19203 1 180.0000771 15.1670000 2
19201 19200 19202 19204 1 180.0000771 15.1670000 2
19200 19202 19204 19205 1 180.0000771 15.1670000 2
19200 19202 19204 19206 1 180.0000771 15.1670000 2
19203 19202 19204 19205 1 180.0000771 15.1670000 2
19203 19202 19204 19206 1 180.0000771 15.1670000 2
19200 19204 19202 19203 4 180.0000771 4.6024000 2
19202 19204 19206 19207 1 180.0000771 15.1670000 2
19202 19204 19206 19208 1 180.0000771 15.1670000 2
19205 19204 19206 19207 1 180.0000771 15.1670000 2
19205 19204 19206 19208 1 180.0000771 15.1670000 2
19202 19206 19204 19205 4 180.0000771 4.6024000 2
19199 19206 19208 19209 4 180.0000771 4.6024000 2
19204 19206 19208 19209 1 180.0000771 15.1670000 2
19207 19206 19208 19209 1 180.0000771 15.1670000 2
19199 19208 19206 19204 1 180.0000771 15.1670000 2
19199 19208 19206 19207 1 180.0000771 15.1670000 2
19204 19208 19206 19207 4 180.0000771 4.6024000 2
19210 19211 19212 19213 1 180.0000771 15.1670000 2
19210 19211 19212 19214 1 180.0000771 15.1670000 2
19213 19211 19212 19214 4 180.0000771 4.6024000 2
19210 19211 19220 19212 4 180.0000771 4.6024000 2
19210 19211 19220 19218 1 180.0000771 15.1670000 2
19210 19211 19220 19221 1 180.0000771 15.1670000 2
19212 19211 19220 19218 1 180.0000771 15.1670000 2
19212 19211 19220 19221 1 180.0000771 15.1670000 2
19213 19212 19211 19220 1 180.0000771 15.1670000 2
19214 19212 19211 19220 1 180.0000771 15.1670000 2
19211 19212 19214 19215 1 180.0000771 15.1670000 2
19211 19212 19214 19216 1 180.0000771 15.1670000 2
19213 19212 19214 19215 1 180.0000771 15.1670000 2
19213 19212 19214 19216 1 180.0000771 15.1670000 2
19212 19214 19216 19217 1 180.0000771 15.1670000 2
19212 19214 19216 19218 1 180.0000771 15.1670000 2
19215 19214 19216 19217 1 180.0000771 15.1670000 2
19215 19214 19216 19218 1 180.0000771 15.1670000 2
19212 19216 19214 19215 4 180.0000771 4.6024000 2
19214 19216 19218 19219 1 180.0000771 15.1670000 2
19214 19216 19218 19220 1 180.0000771 15.1670000 2
19217 19216 19218 19219 1 180.0000771 15.1670000 2
19217 19216 19218 19220 1 180.0000771 15.1670000 2
19214 19218 19216 19217 4 180.0000771 4.6024000 2
19211 19218 19220 19221 4 180.0000771 4.6024000 2
19216 19218 19220 19221 1 180.0000771 15.1670000 2
19219 19218 19220 19221 1 180.0000771 15.1670000 2
19211 19220 19218 19216 1 180.0000771 15.1670000 2
19211 19220 19218 19219 1 180.0000771 15.1670000 2
19216 19220 19218 19219 4 180.0000771 4.6024000 2
19222 19223 19224 19225 1 180.0000771 15.1670000 2
19222 19223 19224 19226 1 180.0000771 15.1670000 2
19225 19223 19224 19226 4 180.0000771 4.6024000 2
19222 19223 19232 19224 4 180.0000771 4.6024000 2
19222 19223 19232 19230 1 180.0000771 15.1670000 2
19222 19223 19232 19233 1 180.0000771 15.1670000 2
19224 19223 19232 19230 1 180.0000771 15.1670000 2
19224 19223 19232 19233 1 180.0000771 15.1670000 2
19225 19224 19223 19232 1 180.0000771 15.1670000 2
19226 19224 19223 19232 1 180.0000771 15.1670000 2
19223 19224 19226 19227 1 180.0000771 15.1670000 2
19223 19224 19226 19228 1 180.0000771 15.1670000 2
19225 19224 19226 19227 1 180.0000771 15.1670000 2
19225 19224 19226 19228 1 180.0000771 15.1670000 2
19224 19226 19228 19229 1 180.0000771 15.1670000 2
19224 19226 19228 19230 1 180.0000771 15.1670000 2
19227 19226 19228 19229 1 180.0000771 15.1670000 2
19227 19226 19228 19230 1 180.0000771 15.1670000 2
19224 19228 19226 19227 4 180.0000771 4.6024000 2
19226 19228 19230 19231 1 180.0000771 15.1670000 2
19226 19228 19230 19232 1 180.0000771 15.1670000 2
19229 19228 19230 19231 1 180.0000771 15.1670000 2
19229 19228 19230 19232 1 180.0000771 15.1670000 2
19226 19230 19228 19229 4 180.0000771 4.6024000 2
19223 19230 19232 19233 4 180.0000771 4.6024000 2
19228 19230 19232 19233 1 180.0000771 15.1670000 2
19231 19230 19232 19233 1 180.0000771 15.1670000 2
19223 19232 19230 19228 1 180.0000771 15.1670000 2
19223 19232 19230 19231 1 180.0000771 15.1670000 2
19228 19232 19230 19231 4 180.0000771 4.6024000 2
19234 19235 19236 19237 1 180.0000771 15.1670000 2
19234 19235 19236 19238 1 180.0000771 15.1670000 2
19237 19235 19236 19238 4 180.0000771 4.6024000 2
19234 19235 19244 19236 4 180.0000771 4.6024000 2
19234 19235 19244 19242 1 180.0000771 15.1670000 2
19234 19235 19244 19245 1 180.0000771 15.1670000 2
19236 19235 19244 19242 1 180.0000771 15.1670000 2
19236 19235 19244 19245 1 180.0000771 15.1670000 2
19237 19236 19235 19244 1 180.0000771 15.1670000 2
19238 19236 19235 19244 1 180.0000771 15.1670000 2
19235 19236 19238 19239 1 180.0000771 15.1670000 2
19235 19236 19238 19240 1 180.0000771 15.1670000 2
19237 19236 19238 19239 1 180.0000771 15.1670000 2
19237 19236 19238 19240 1 180.0000771 15.1670000 2
19236 19238 19240 19241 1 180.0000771 15.1670000 2
19236 19238 19240 19242 1 180.0000771 15.1670000 2
19239 19238 19240 19241 1 180.0000771 15.1670000 2
19239 19238 19240 19242 1 180.0000771 15.1670000 2
19236 19240 19238 19239 4 180.0000771 4.6024000 2
19238 19240 19242 19243 1 180.0000771 15.1670000 2
19238 19240 19242 19244 1 180.0000771 15.1670000 2
19241 19240 19242 19243 1 180.0000771 15.1670000 2
19241 19240 19242 19244 1 180.0000771 15.1670000 2
19238 19242 19240 19241 4 180.0000771 4.6024000 2
19235 19242 19244 19245 4 180.0000771 4.6024000 2
19240 19242 19244 19245 1 180.0000771 15.1670000 2
19243 19242 19244 19245 1 180.0000771 15.1670000 2
19235 19244 19242 19240 1 180.0000771 15.1670000 2
19235 19244 19242 19243 1 180.0000771 15.1670000 2
19240 19244 19242 19243 4 180.0000771 4.6024000 2
19246 19247 19248 19249 1 180.0000771 15.1670000 2
19246 19247 19248 19250 1 180.0000771 15.1670000 2
19249 19247 19248 19250 4 180.0000771 4.6024000 2
19246 19247 19256 19248 4 180.0000771 4.6024000 2
19246 19247 19256 19254 1 180.0000771 15.1670000 2
19246 19247 19256 19257 1 180.0000771 15.1670000 2
19248 19247 19256 19254 1 180.0000771 15.1670000 2
19248 19247 19256 19257 1 180.0000771 15.1670000 2
19249 19248 19247 19256 1 180.0000771 15.1670000 2
19250 19248 19247 19256 1 180.0000771 15.1670000 2
19247 19248 19250 19251 1 180.0000771 15.1670000 2
19247 19248 19250 19252 1 180.0000771 15.1670000 2
19249 19248 19250 19251 1 180.0000771 15.1670000 2
19249 19248 19250 19252 1 180.0000771 15.1670000 2
19248 19250 19252 19253 1 180.0000771 15.1670000 2
19248 19250 19252 19254 1 180.0000771 15.1670000 2
19251 19250 19252 19253 1 180.0000771 15.1670000 2
19251 19250 19252 19254 1 180.0000771 15.1670000 2
19248 19252 19250 19251 4 180.0000771 4.6024000 2
19250 19252 19254 19255 1 180.0000771 15.1670000 2
19250 19252 19254 19256 1 180.0000771 15.1670000 2
19253 19252 19254 19255 1 180.0000771 15.1670000 2
19253 19252 19254 19256 1 180.0000771 15.1670000 2
19250 19254 19252 19253 4 180.0000771 4.6024000 2
19247 19254 19256 19257 4 180.0000771 4.6024000 2
19252 19254 19256 19257 1 180.0000771 15.1670000 2
19255 19254 19256 19257 1 180.0000771 15.1670000 2
19247 19256 19254 19252 1 180.0000771 15.1670000 2
19247 19256 19254 19255 1 180.0000771 15.1670000 2
19252 19256 19254 19255 4 180.0000771 4.6024000 2
19258 19259 19260 19261 1 180.0000771 15.1670000 2
19258 19259 19260 19262 1 180.0000771 15.1670000 2
19261 19259 19260 19262 4 180.0000771 4.6024000 2
19258 19259 19268 19260 4 180.0000771 4.6024000 2
19258 19259 19268 19266 1 180.0000771 15.1670000 2
19258 19259 19268 19269 1 180.0000771 15.1670000 2
19260 19259 19268 19266 1 180.0000771 15.1670000 2
19260 19259 19268 19269 1 180.0000771 15.1670000 2
19261 19260 19259 19268 1 180.0000771 15.1670000 2
19262 19260 19259 19268 1 180.0000771 15.1670000 2
19259 19260 19262 19263 1 180.0000771 15.1670000 2
19259 19260 19262 19264 1 180.0000771 15.1670000 2
19261 19260 19262 19263 1 180.0000771 15.1670000 2
19261 19260 19262 19264 1 180.0000771 15.1670000 2
19260 19262 19264 19265 1 180.0000771 15.1670000 2
19260 19262 19264 19266 1 180.0000771 15.1670000 2
19263 19262 19264 19265 1 180.0000771 15.1670000 2
19263 19262 19264 19266 1 180.0000771 15.1670000 2
19260 19264 19262 19263 4 180.0000771 4.6024000 2
19262 19264 19266 19267 1 180.0000771 15.1670000 2
19262 19264 19266 19268 1 180.0000771 15.1670000 2
19265 19264 19266 19267 1 180.0000771 15.1670000 2
19265 19264 19266 19268 1 180.0000771 15.1670000 2
19262 19266 19264 19265 4 180.0000771 4.6024000 2
19259 19266 19268 19269 4 180.0000771 4.6024000 2
19264 19266 19268 19269 1 180.0000771 15.1670000 2
19267 19266 19268 19269 1 180.0000771 15.1670000 2
19259 19268 19266 19264 1 180.0000771 15.1670000 2
19259 19268 19266 19267 1 180.0000771 15.1670000 2
19264 19268 19266 19267 4 180.0000771 4.6024000 2
19270 19271 19272 19273 1 180.0000771 15.1670000 2
19270 19271 19272 19274 1 180.0000771 15.1670000 2
19273 19271 19272 19274 4 180.0000771 4.6024000 2
19270 19271 19280 19272 4 180.0000771 4.6024000 2
19270 19271 19280 19278 1 180.0000771 15.1670000 2
19270 19271 19280 19281 1 180.0000771 15.1670000 2
19272 19271 19280 19278 1 180.0000771 15.1670000 2
19272 19271 19280 19281 1 180.0000771 15.1670000 2
19273 19272 19271 19280 1 180.0000771 15.1670000 2
19274 19272 19271 19280 1 180.0000771 15.1670000 2
19271 19272 19274 19275 1 180.0000771 15.1670000 2
19271 19272 19274 19276 1 180.0000771 15.1670000 2
19273 19272 19274 19275 1 180.0000771 15.1670000 2
19273 19272 19274 19276 1 180.0000771 15.1670000 2
19272 19274 19276 19277 1 180.0000771 15.1670000 2
19272 19274 19276 19278 1 180.0000771 15.1670000 2
19275 19274 19276 19277 1 180.0000771 15.1670000 2
19275 19274 19276 19278 1 180.0000771 15.1670000 2
19272 19276 19274 19275 4 180.0000771 4.6024000 2
19274 19276 19278 19279 1 180.0000771 15.1670000 2
19274 19276 19278 19280 1 180.0000771 15.1670000 2
19277 19276 19278 19279 1 180.0000771 15.1670000 2
19277 19276 19278 19280 1 180.0000771 15.1670000 2
19274 19278 19276 19277 4 180.0000771 4.6024000 2
19271 19278 19280 19281 4 180.0000771 4.6024000 2
19276 19278 19280 19281 1 180.0000771 15.1670000 2
19279 19278 19280 19281 1 180.0000771 15.1670000 2
19271 19280 19278 19276 1 180.0000771 15.1670000 2
19271 19280 19278 19279 1 180.0000771 15.1670000 2
19276 19280 19278 19279 4 180.0000771 4.6024000 2
19282 19283 19284 19285 1 180.0000771 15.1670000 2
19282 19283 19284 19286 1 180.0000771 15.1670000 2
19285 19283 19284 19286 4 180.0000771 4.6024000 2
19282 19283 19292 19284 4 180.0000771 4.6024000 2
19282 19283 19292 19290 1 180.0000771 15.1670000 2
19282 19283 19292 19293 1 180.0000771 15.1670000 2
19284 19283 19292 19290 1 180.0000771 15.1670000 2
19284 19283 19292 19293 1 180.0000771 15.1670000 2
19285 19284 19283 19292 1 180.0000771 15.1670000 2
19286 19284 19283 19292 1 180.0000771 15.1670000 2
19283 19284 19286 19287 1 180.0000771 15.1670000 2
19283 19284 19286 19288 1 180.0000771 15.1670000 2
19285 19284 19286 19287 1 180.0000771 15.1670000 2
19285 19284 19286 19288 1 180.0000771 15.1670000 2
19284 19286 19288 19289 1 180.0000771 15.1670000 2
19284 19286 19288 19290 1 180.0000771 15.1670000 2
19287 19286 19288 19289 1 180.0000771 15.1670000 2
19287 19286 19288 19290 1 180.0000771 15.1670000 2
19284 19288 19286 19287 4 180.0000771 4.6024000 2
19286 19288 19290 19291 1 180.0000771 15.1670000 2
19286 19288 19290 19292 1 180.0000771 15.1670000 2
19289 19288 19290 19291 1 180.0000771 15.1670000 2
19289 19288 19290 19292 1 180.0000771 15.1670000 2
19286 19290 19288 19289 4 180.0000771 4.6024000 2
19283 19290 19292 19293 4 180.0000771 4.6024000 2
19288 19290 19292 19293 1 180.0000771 15.1670000 2
19291 19290 19292 19293 1 180.0000771 15.1670000 2
19283 19292 19290 19288 1 180.0000771 15.1670000 2
19283 19292 19290 19291 1 180.0000771 15.1670000 2
19288 19292 19290 19291 4 180.0000771 4.6024000 2
19294 19295 19296 19297 1 180.0000771 15.1670000 2
19294 19295 19296 19298 1 180.0000771 15.1670000 2
19297 19295 19296 19298 4 180.0000771 4.6024000 2
19294 19295 19304 19296 4 180.0000771 4.6024000 2
19294 19295 19304 19302 1 180.0000771 15.1670000 2
19294 19295 19304 19305 1 180.0000771 15.1670000 2
19296 19295 19304 19302 1 180.0000771 15.1670000 2
19296 19295 19304 19305 1 180.0000771 15.1670000 2
19297 19296 19295 19304 1 180.0000771 15.1670000 2
19298 19296 19295 19304 1 180.0000771 15.1670000 2
19295 19296 19298 19299 1 180.0000771 15.1670000 2
19295 19296 19298 19300 1 180.0000771 15.1670000 2
19297 19296 19298 19299 1 180.0000771 15.1670000 2
19297 19296 19298 19300 1 180.0000771 15.1670000 2
19296 19298 19300 19301 1 180.0000771 15.1670000 2
19296 19298 19300 19302 1 180.0000771 15.1670000 2
19299 19298 19300 19301 1 180.0000771 15.1670000 2
19299 19298 19300 19302 1 180.0000771 15.1670000 2
19296 19300 19298 19299 4 180.0000771 4.6024000 2
19298 19300 19302 19303 1 180.0000771 15.1670000 2
19298 19300 19302 19304 1 180.0000771 15.1670000 2
19301 19300 19302 19303 1 180.0000771 15.1670000 2
19301 19300 19302 19304 1 180.0000771 15.1670000 2
19298 19302 19300 19301 4 180.0000771 4.6024000 2
19295 19302 19304 19305 4 180.0000771 4.6024000 2
19300 19302 19304 19305 1 180.0000771 15.1670000 2
19303 19302 19304 19305 1 180.0000771 15.1670000 2
19295 19304 19302 19300 1 180.0000771 15.1670000 2
19295 19304 19302 19303 1 180.0000771 15.1670000 2
19300 19304 19302 19303 4 180.0000771 4.6024000 2
19306 19307 19308 19309 1 180.0000771 15.1670000 2
19306 19307 19308 19310 1 180.0000771 15.1670000 2
19309 19307 19308 19310 4 180.0000771 4.6024000 2
19306 19307 19316 19308 4 180.0000771 4.6024000 2
19306 19307 19316 19314 1 180.0000771 15.1670000 2
19306 19307 19316 19317 1 180.0000771 15.1670000 2
19308 19307 19316 19314 1 180.0000771 15.1670000 2
19308 19307 19316 19317 1 180.0000771 15.1670000 2
19309 19308 19307 19316 1 180.0000771 15.1670000 2
19310 19308 19307 19316 1 180.0000771 15.1670000 2
19307 19308 19310 19311 1 180.0000771 15.1670000 2
19307 19308 19310 19312 1 180.0000771 15.1670000 2
19309 19308 19310 19311 1 180.0000771 15.1670000 2
19309 19308 19310 19312 1 180.0000771 15.1670000 2
19308 19310 19312 19313 1 180.0000771 15.1670000 2
19308 19310 19312 19314 1 180.0000771 15.1670000 2
19311 19310 19312 19313 1 180.0000771 15.1670000 2
19311 19310 19312 19314 1 180.0000771 15.1670000 2
19308 19312 19310 19311 4 180.0000771 4.6024000 2
19310 19312 19314 19315 1 180.0000771 15.1670000 2
19310 19312 19314 19316 1 180.0000771 15.1670000 2
19313 19312 19314 19315 1 180.0000771 15.1670000 2
19313 19312 19314 19316 1 180.0000771 15.1670000 2
19310 19314 19312 19313 4 180.0000771 4.6024000 2
19307 19314 19316 19317 4 180.0000771 4.6024000 2
19312 19314 19316 19317 1 180.0000771 15.1670000 2
19315 19314 19316 19317 1 180.0000771 15.1670000 2
19307 19316 19314 19312 1 180.0000771 15.1670000 2
19307 19316 19314 19315 1 180.0000771 15.1670000 2
19312 19316 19314 19315 4 180.0000771 4.6024000 2
19318 19319 19320 19321 1 180.0000771 15.1670000 2
19318 19319 19320 19322 1 180.0000771 15.1670000 2
19321 19319 19320 19322 4 180.0000771 4.6024000 2
19318 19319 19328 19320 4 180.0000771 4.6024000 2
19318 19319 19328 19326 1 180.0000771 15.1670000 2
19318 19319 19328 19329 1 180.0000771 15.1670000 2
19320 19319 19328 19326 1 180.0000771 15.1670000 2
19320 19319 19328 19329 1 180.0000771 15.1670000 2
19321 19320 19319 19328 1 180.0000771 15.1670000 2
19322 19320 19319 19328 1 180.0000771 15.1670000 2
19319 19320 19322 19323 1 180.0000771 15.1670000 2
19319 19320 19322 19324 1 180.0000771 15.1670000 2
19321 19320 19322 19323 1 180.0000771 15.1670000 2
19321 19320 19322 19324 1 180.0000771 15.1670000 2
19320 19322 19324 19325 1 180.0000771 15.1670000 2
19320 19322 19324 19326 1 180.0000771 15.1670000 2
19323 19322 19324 19325 1 180.0000771 15.1670000 2
19323 19322 19324 19326 1 180.0000771 15.1670000 2
19320 19324 19322 19323 4 180.0000771 4.6024000 2
19322 19324 19326 19327 1 180.0000771 15.1670000 2
19322 19324 19326 19328 1 180.0000771 15.1670000 2
19325 19324 19326 19327 1 180.0000771 15.1670000 2
19325 19324 19326 19328 1 180.0000771 15.1670000 2
19322 19326 19324 19325 4 180.0000771 4.6024000 2
19319 19326 19328 19329 4 180.0000771 4.6024000 2
19324 19326 19328 19329 1 180.0000771 15.1670000 2
19327 19326 19328 19329 1 180.0000771 15.1670000 2
19319 19328 19326 19324 1 180.0000771 15.1670000 2
19319 19328 19326 19327 1 180.0000771 15.1670000 2
19324 19328 19326 19327 4 180.0000771 4.6024000 2
19330 19331 19332 19333 1 180.0000771 15.1670000 2
19330 19331 19332 19334 1 180.0000771 15.1670000 2
19333 19331 19332 19334 4 180.0000771 4.6024000 2
19330 19331 19340 19332 4 180.0000771 4.6024000 2
19330 19331 19340 19338 1 180.0000771 15.1670000 2
19330 19331 19340 19341 1 180.0000771 15.1670000 2
19332 19331 19340 19338 1 180.0000771 15.1670000 2
19332 19331 19340 19341 1 180.0000771 15.1670000 2
19333 19332 19331 19340 1 180.0000771 15.1670000 2
19334 19332 19331 19340 1 180.0000771 15.1670000 2
19331 19332 19334 19335 1 180.0000771 15.1670000 2
19331 19332 19334 19336 1 180.0000771 15.1670000 2
19333 19332 19334 19335 1 180.0000771 15.1670000 2
19333 19332 19334 19336 1 180.0000771 15.1670000 2
19332 19334 19336 19337 1 180.0000771 15.1670000 2
19332 19334 19336 19338 1 180.0000771 15.1670000 2
19335 19334 19336 19337 1 180.0000771 15.1670000 2
19335 19334 19336 19338 1 180.0000771 15.1670000 2
19332 19336 19334 19335 4 180.0000771 4.6024000 2
19334 19336 19338 19339 1 180.0000771 15.1670000 2
19334 19336 19338 19340 1 180.0000771 15.1670000 2
19337 19336 19338 19339 1 180.0000771 15.1670000 2
19337 19336 19338 19340 1 180.0000771 15.1670000 2
19334 19338 19336 19337 4 180.0000771 4.6024000 2
19331 19338 19340 19341 4 180.0000771 4.6024000 2
19336 19338 19340 19341 1 180.0000771 15.1670000 2
19339 19338 19340 19341 1 180.0000771 15.1670000 2
19331 19340 19338 19336 1 180.0000771 15.1670000 2
19331 19340 19338 19339 1 180.0000771 15.1670000 2
19336 19340 19338 19339 4 180.0000771 4.6024000 2
19342 19343 19344 19345 1 180.0000771 15.1670000 2
19342 19343 19344 19346 1 180.0000771 15.1670000 2
19345 19343 19344 19346 4 180.0000771 4.6024000 2
19342 19343 19352 19344 4 180.0000771 4.6024000 2
19342 19343 19352 19350 1 180.0000771 15.1670000 2
19342 19343 19352 19353 1 180.0000771 15.1670000 2
19344 19343 19352 19350 1 180.0000771 15.1670000 2
19344 19343 19352 19353 1 180.0000771 15.1670000 2
19345 19344 19343 19352 1 180.0000771 15.1670000 2
19346 19344 19343 19352 1 180.0000771 15.1670000 2
19343 19344 19346 19347 1 180.0000771 15.1670000 2
19343 19344 19346 19348 1 180.0000771 15.1670000 2
19345 19344 19346 19347 1 180.0000771 15.1670000 2
19345 19344 19346 19348 1 180.0000771 15.1670000 2
19344 19346 19348 19349 1 180.0000771 15.1670000 2
19344 19346 19348 19350 1 180.0000771 15.1670000 2
19347 19346 19348 19349 1 180.0000771 15.1670000 2
19347 19346 19348 19350 1 180.0000771 15.1670000 2
19344 19348 19346 19347 4 180.0000771 4.6024000 2
19346 19348 19350 19351 1 180.0000771 15.1670000 2
19346 19348 19350 19352 1 180.0000771 15.1670000 2
19349 19348 19350 19351 1 180.0000771 15.1670000 2
19349 19348 19350 19352 1 180.0000771 15.1670000 2
19346 19350 19348 19349 4 180.0000771 4.6024000 2
19343 19350 19352 19353 4 180.0000771 4.6024000 2
19348 19350 19352 19353 1 180.0000771 15.1670000 2
19351 19350 19352 19353 1 180.0000771 15.1670000 2
19343 19352 19350 19348 1 180.0000771 15.1670000 2
19343 19352 19350 19351 1 180.0000771 15.1670000 2
19348 19352 19350 19351 4 180.0000771 4.6024000 2
19354 19355 19356 19357 1 180.0000771 15.1670000 2
19354 19355 19356 19358 1 180.0000771 15.1670000 2
19357 19355 19356 19358 4 180.0000771 4.6024000 2
19354 19355 19364 19356 4 180.0000771 4.6024000 2
19354 19355 19364 19362 1 180.0000771 15.1670000 2
19354 19355 19364 19365 1 180.0000771 15.1670000 2
19356 19355 19364 19362 1 180.0000771 15.1670000 2
19356 19355 19364 19365 1 180.0000771 15.1670000 2
19357 19356 19355 19364 1 180.0000771 15.1670000 2
19358 19356 19355 19364 1 180.0000771 15.1670000 2
19355 19356 19358 19359 1 180.0000771 15.1670000 2
19355 19356 19358 19360 1 180.0000771 15.1670000 2
19357 19356 19358 19359 1 180.0000771 15.1670000 2
19357 19356 19358 19360 1 180.0000771 15.1670000 2
19356 19358 19360 19361 1 180.0000771 15.1670000 2
19356 19358 19360 19362 1 180.0000771 15.1670000 2
19359 19358 19360 19361 1 180.0000771 15.1670000 2
19359 19358 19360 19362 1 180.0000771 15.1670000 2
19356 19360 19358 19359 4 180.0000771 4.6024000 2
19358 19360 19362 19363 1 180.0000771 15.1670000 2
19358 19360 19362 19364 1 180.0000771 15.1670000 2
19361 19360 19362 19363 1 180.0000771 15.1670000 2
19361 19360 19362 19364 1 180.0000771 15.1670000 2
19358 19362 19360 19361 4 180.0000771 4.6024000 2
19355 19362 19364 19365 4 180.0000771 4.6024000 2
19360 19362 19364 19365 1 180.0000771 15.1670000 2
19363 19362 19364 19365 1 180.0000771 15.1670000 2
19355 19364 19362 19360 1 180.0000771 15.1670000 2
19355 19364 19362 19363 1 180.0000771 15.1670000 2
19360 19364 19362 19363 4 180.0000771 4.6024000 2
19366 19367 19368 19369 1 180.0000771 15.1670000 2
19366 19367 19368 19370 1 180.0000771 15.1670000 2
19369 19367 19368 19370 4 180.0000771 4.6024000 2
19366 19367 19376 19368 4 180.0000771 4.6024000 2
19366 19367 19376 19374 1 180.0000771 15.1670000 2
19366 19367 19376 19377 1 180.0000771 15.1670000 2
19368 19367 19376 19374 1 180.0000771 15.1670000 2
19368 19367 19376 19377 1 180.0000771 15.1670000 2
19369 19368 19367 19376 1 180.0000771 15.1670000 2
19370 19368 19367 19376 1 180.0000771 15.1670000 2
19367 19368 19370 19371 1 180.0000771 15.1670000 2
19367 19368 19370 19372 1 180.0000771 15.1670000 2
19369 19368 19370 19371 1 180.0000771 15.1670000 2
19369 19368 19370 19372 1 180.0000771 15.1670000 2
19368 19370 19372 19373 1 180.0000771 15.1670000 2
19368 19370 19372 19374 1 180.0000771 15.1670000 2
19371 19370 19372 19373 1 180.0000771 15.1670000 2
19371 19370 19372 19374 1 180.0000771 15.1670000 2
19368 19372 19370 19371 4 180.0000771 4.6024000 2
19370 19372 19374 19375 1 180.0000771 15.1670000 2
19370 19372 19374 19376 1 180.0000771 15.1670000 2
19373 19372 19374 19375 1 180.0000771 15.1670000 2
19373 19372 19374 19376 1 180.0000771 15.1670000 2
19370 19374 19372 19373 4 180.0000771 4.6024000 2
19367 19374 19376 19377 4 180.0000771 4.6024000 2
19372 19374 19376 19377 1 180.0000771 15.1670000 2
19375 19374 19376 19377 1 180.0000771 15.1670000 2
19367 19376 19374 19372 1 180.0000771 15.1670000 2
19367 19376 19374 19375 1 180.0000771 15.1670000 2
19372 19376 19374 19375 4 180.0000771 4.6024000 2
19378 19379 19380 19381 1 180.0000771 15.1670000 2
19378 19379 19380 19382 1 180.0000771 15.1670000 2
19381 19379 19380 19382 4 180.0000771 4.6024000 2
19378 19379 19388 19380 4 180.0000771 4.6024000 2
19378 19379 19388 19386 1 180.0000771 15.1670000 2
19378 19379 19388 19389 1 180.0000771 15.1670000 2
19380 19379 19388 19386 1 180.0000771 15.1670000 2
19380 19379 19388 19389 1 180.0000771 15.1670000 2
19381 19380 19379 19388 1 180.0000771 15.1670000 2
19382 19380 19379 19388 1 180.0000771 15.1670000 2
19379 19380 19382 19383 1 180.0000771 15.1670000 2
19379 19380 19382 19384 1 180.0000771 15.1670000 2
19381 19380 19382 19383 1 180.0000771 15.1670000 2
19381 19380 19382 19384 1 180.0000771 15.1670000 2
19380 19382 19384 19385 1 180.0000771 15.1670000 2
19380 19382 19384 19386 1 180.0000771 15.1670000 2
19383 19382 19384 19385 1 180.0000771 15.1670000 2
19383 19382 19384 19386 1 180.0000771 15.1670000 2
19380 19384 19382 19383 4 180.0000771 4.6024000 2
19382 19384 19386 19387 1 180.0000771 15.1670000 2
19382 19384 19386 19388 1 180.0000771 15.1670000 2
19385 19384 19386 19387 1 180.0000771 15.1670000 2
19385 19384 19386 19388 1 180.0000771 15.1670000 2
19382 19386 19384 19385 4 180.0000771 4.6024000 2
19379 19386 19388 19389 4 180.0000771 4.6024000 2
19384 19386 19388 19389 1 180.0000771 15.1670000 2
19387 19386 19388 19389 1 180.0000771 15.1670000 2
19379 19388 19386 19384 1 180.0000771 15.1670000 2
19379 19388 19386 19387 1 180.0000771 15.1670000 2
19384 19388 19386 19387 4 180.0000771 4.6024000 2
19390 19391 19392 19393 1 180.0000771 15.1670000 2
19390 19391 19392 19394 1 180.0000771 15.1670000 2
19393 19391 19392 19394 4 180.0000771 4.6024000 2
19390 19391 19400 19392 4 180.0000771 4.6024000 2
19390 19391 19400 19398 1 180.0000771 15.1670000 2
19390 19391 19400 19401 1 180.0000771 15.1670000 2
19392 19391 19400 19398 1 180.0000771 15.1670000 2
19392 19391 19400 19401 1 180.0000771 15.1670000 2
19393 19392 19391 19400 1 180.0000771 15.1670000 2
19394 19392 19391 19400 1 180.0000771 15.1670000 2
19391 19392 19394 19395 1 180.0000771 15.1670000 2
19391 19392 19394 19396 1 180.0000771 15.1670000 2
19393 19392 19394 19395 1 180.0000771 15.1670000 2
19393 19392 19394 19396 1 180.0000771 15.1670000 2
19392 19394 19396 19397 1 180.0000771 15.1670000 2
19392 19394 19396 19398 1 180.0000771 15.1670000 2
19395 19394 19396 19397 1 180.0000771 15.1670000 2
19395 19394 19396 19398 1 180.0000771 15.1670000 2
19392 19396 19394 19395 4 180.0000771 4.6024000 2
19394 19396 19398 19399 1 180.0000771 15.1670000 2
19394 19396 19398 19400 1 180.0000771 15.1670000 2
19397 19396 19398 19399 1 180.0000771 15.1670000 2
19397 19396 19398 19400 1 180.0000771 15.1670000 2
19394 19398 19396 19397 4 180.0000771 4.6024000 2
19391 19398 19400 19401 4 180.0000771 4.6024000 2
19396 19398 19400 19401 1 180.0000771 15.1670000 2
19399 19398 19400 19401 1 180.0000771 15.1670000 2
19391 19400 19398 19396 1 180.0000771 15.1670000 2
19391 19400 19398 19399 1 180.0000771 15.1670000 2
19396 19400 19398 19399 4 180.0000771 4.6024000 2
19402 19403 19404 19405 1 180.0000771 15.1670000 2
19402 19403 19404 19406 1 180.0000771 15.1670000 2
19405 19403 19404 19406 4 180.0000771 4.6024000 2
19402 19403 19412 19404 4 180.0000771 4.6024000 2
19402 19403 19412 19410 1 180.0000771 15.1670000 2
19402 19403 19412 19413 1 180.0000771 15.1670000 2
19404 19403 19412 19410 1 180.0000771 15.1670000 2
19404 19403 19412 19413 1 180.0000771 15.1670000 2
19405 19404 19403 19412 1 180.0000771 15.1670000 2
19406 19404 19403 19412 1 180.0000771 15.1670000 2
19403 19404 19406 19407 1 180.0000771 15.1670000 2
19403 19404 19406 19408 1 180.0000771 15.1670000 2
19405 19404 19406 19407 1 180.0000771 15.1670000 2
19405 19404 19406 19408 1 180.0000771 15.1670000 2
19404 19406 19408 19409 1 180.0000771 15.1670000 2
19404 19406 19408 19410 1 180.0000771 15.1670000 2
19407 19406 19408 19409 1 180.0000771 15.1670000 2
19407 19406 19408 19410 1 180.0000771 15.1670000 2
19404 19408 19406 19407 4 180.0000771 4.6024000 2
19406 19408 19410 19411 1 180.0000771 15.1670000 2
19406 19408 19410 19412 1 180.0000771 15.1670000 2
19409 19408 19410 19411 1 180.0000771 15.1670000 2
19409 19408 19410 19412 1 180.0000771 15.1670000 2
19406 19410 19408 19409 4 180.0000771 4.6024000 2
19403 19410 19412 19413 4 180.0000771 4.6024000 2
19408 19410 19412 19413 1 180.0000771 15.1670000 2
19411 19410 19412 19413 1 180.0000771 15.1670000 2
19403 19412 19410 19408 1 180.0000771 15.1670000 2
19403 19412 19410 19411 1 180.0000771 15.1670000 2
19408 19412 19410 19411 4 180.0000771 4.6024000 2
19414 19415 19416 19417 1 180.0000771 15.1670000 2
19414 19415 19416 19418 1 180.0000771 15.1670000 2
19417 19415 19416 19418 4 180.0000771 4.6024000 2
19414 19415 19424 19416 4 180.0000771 4.6024000 2
19414 19415 19424 19422 1 180.0000771 15.1670000 2
19414 19415 19424 19425 1 180.0000771 15.1670000 2
19416 19415 19424 19422 1 180.0000771 15.1670000 2
19416 19415 19424 19425 1 180.0000771 15.1670000 2
19417 19416 19415 19424 1 180.0000771 15.1670000 2
19418 19416 19415 19424 1 180.0000771 15.1670000 2
19415 19416 19418 19419 1 180.0000771 15.1670000 2
19415 19416 19418 19420 1 180.0000771 15.1670000 2
19417 19416 19418 19419 1 180.0000771 15.1670000 2
19417 19416 19418 19420 1 180.0000771 15.1670000 2
19416 19418 19420 19421 1 180.0000771 15.1670000 2
19416 19418 19420 19422 1 180.0000771 15.1670000 2
19419 19418 19420 19421 1 180.0000771 15.1670000 2
19419 19418 19420 19422 1 180.0000771 15.1670000 2
19416 19420 19418 19419 4 180.0000771 4.6024000 2
19418 19420 19422 19423 1 180.0000771 15.1670000 2
19418 19420 19422 19424 1 180.0000771 15.1670000 2
19421 19420 19422 19423 1 180.0000771 15.1670000 2
19421 19420 19422 19424 1 180.0000771 15.1670000 2
19418 19422 19420 19421 4 180.0000771 4.6024000 2
19415 19422 19424 19425 4 180.0000771 4.6024000 2
19420 19422 19424 19425 1 180.0000771 15.1670000 2
19423 19422 19424 19425 1 180.0000771 15.1670000 2
19415 19424 19422 19420 1 180.0000771 15.1670000 2
19415 19424 19422 19423 1 180.0000771 15.1670000 2
19420 19424 19422 19423 4 180.0000771 4.6024000 2
19426 19427 19428 19429 1 180.0000771 15.1670000 2
19426 19427 19428 19430 1 180.0000771 15.1670000 2
19429 19427 19428 19430 4 180.0000771 4.6024000 2
19426 19427 19436 19428 4 180.0000771 4.6024000 2
19426 19427 19436 19434 1 180.0000771 15.1670000 2
19426 19427 19436 19437 1 180.0000771 15.1670000 2
19428 19427 19436 19434 1 180.0000771 15.1670000 2
19428 19427 19436 19437 1 180.0000771 15.1670000 2
19429 19428 19427 19436 1 180.0000771 15.1670000 2
19430 19428 19427 19436 1 180.0000771 15.1670000 2
19427 19428 19430 19431 1 180.0000771 15.1670000 2
19427 19428 19430 19432 1 180.0000771 15.1670000 2
19429 19428 19430 19431 1 180.0000771 15.1670000 2
19429 19428 19430 19432 1 180.0000771 15.1670000 2
19428 19430 19432 19433 1 180.0000771 15.1670000 2
19428 19430 19432 19434 1 180.0000771 15.1670000 2
19431 19430 19432 19433 1 180.0000771 15.1670000 2
19431 19430 19432 19434 1 180.0000771 15.1670000 2
19428 19432 19430 19431 4 180.0000771 4.6024000 2
19430 19432 19434 19435 1 180.0000771 15.1670000 2
19430 19432 19434 19436 1 180.0000771 15.1670000 2
19433 19432 19434 19435 1 180.0000771 15.1670000 2
19433 19432 19434 19436 1 180.0000771 15.1670000 2
19430 19434 19432 19433 4 180.0000771 4.6024000 2
19427 19434 19436 19437 4 180.0000771 4.6024000 2
19432 19434 19436 19437 1 180.0000771 15.1670000 2
19435 19434 19436 19437 1 180.0000771 15.1670000 2
19427 19436 19434 19432 1 180.0000771 15.1670000 2
19427 19436 19434 19435 1 180.0000771 15.1670000 2
19432 19436 19434 19435 4 180.0000771 4.6024000 2
19438 19439 19440 19441 1 180.0000771 15.1670000 2
19438 19439 19440 19442 1 180.0000771 15.1670000 2
19441 19439 19440 19442 4 180.0000771 4.6024000 2
19438 19439 19448 19440 4 180.0000771 4.6024000 2
19438 19439 19448 19446 1 180.0000771 15.1670000 2
19438 19439 19448 19449 1 180.0000771 15.1670000 2
19440 19439 19448 19446 1 180.0000771 15.1670000 2
19440 19439 19448 19449 1 180.0000771 15.1670000 2
19441 19440 19439 19448 1 180.0000771 15.1670000 2
19442 19440 19439 19448 1 180.0000771 15.1670000 2
19439 19440 19442 19443 1 180.0000771 15.1670000 2
19439 19440 19442 19444 1 180.0000771 15.1670000 2
19441 19440 19442 19443 1 180.0000771 15.1670000 2
19441 19440 19442 19444 1 180.0000771 15.1670000 2
19440 19442 19444 19445 1 180.0000771 15.1670000 2
19440 19442 19444 19446 1 180.0000771 15.1670000 2
19443 19442 19444 19445 1 180.0000771 15.1670000 2
19443 19442 19444 19446 1 180.0000771 15.1670000 2
19440 19444 19442 19443 4 180.0000771 4.6024000 2
19442 19444 19446 19447 1 180.0000771 15.1670000 2
19442 19444 19446 19448 1 180.0000771 15.1670000 2
19445 19444 19446 19447 1 180.0000771 15.1670000 2
19445 19444 19446 19448 1 180.0000771 15.1670000 2
19442 19446 19444 19445 4 180.0000771 4.6024000 2
19439 19446 19448 19449 4 180.0000771 4.6024000 2
19444 19446 19448 19449 1 180.0000771 15.1670000 2
19447 19446 19448 19449 1 180.0000771 15.1670000 2
19439 19448 19446 19444 1 180.0000771 15.1670000 2
19439 19448 19446 19447 1 180.0000771 15.1670000 2
19444 19448 19446 19447 4 180.0000771 4.6024000 2
19450 19451 19452 19453 1 180.0000771 15.1670000 2
19450 19451 19452 19454 1 180.0000771 15.1670000 2
19453 19451 19452 19454 4 180.0000771 4.6024000 2
19450 19451 19460 19452 4 180.0000771 4.6024000 2
19450 19451 19460 19458 1 180.0000771 15.1670000 2
19450 19451 19460 19461 1 180.0000771 15.1670000 2
19452 19451 19460 19458 1 180.0000771 15.1670000 2
19452 19451 19460 19461 1 180.0000771 15.1670000 2
19453 19452 19451 19460 1 180.0000771 15.1670000 2
19454 19452 19451 19460 1 180.0000771 15.1670000 2
19451 19452 19454 19455 1 180.0000771 15.1670000 2
19451 19452 19454 19456 1 180.0000771 15.1670000 2
19453 19452 19454 19455 1 180.0000771 15.1670000 2
19453 19452 19454 19456 1 180.0000771 15.1670000 2
19452 19454 19456 19457 1 180.0000771 15.1670000 2
19452 19454 19456 19458 1 180.0000771 15.1670000 2
19455 19454 19456 19457 1 180.0000771 15.1670000 2
19455 19454 19456 19458 1 180.0000771 15.1670000 2
19452 19456 19454 19455 4 180.0000771 4.6024000 2
19454 19456 19458 19459 1 180.0000771 15.1670000 2
19454 19456 19458 19460 1 180.0000771 15.1670000 2
19457 19456 19458 19459 1 180.0000771 15.1670000 2
19457 19456 19458 19460 1 180.0000771 15.1670000 2
19454 19458 19456 19457 4 180.0000771 4.6024000 2
19451 19458 19460 19461 4 180.0000771 4.6024000 2
19456 19458 19460 19461 1 180.0000771 15.1670000 2
19459 19458 19460 19461 1 180.0000771 15.1670000 2
19451 19460 19458 19456 1 180.0000771 15.1670000 2
19451 19460 19458 19459 1 180.0000771 15.1670000 2
19456 19460 19458 19459 4 180.0000771 4.6024000 2
19462 19463 19464 19465 1 180.0000771 15.1670000 2
19462 19463 19464 19466 1 180.0000771 15.1670000 2
19465 19463 19464 19466 4 180.0000771 4.6024000 2
19462 19463 19472 19464 4 180.0000771 4.6024000 2
19462 19463 19472 19470 1 180.0000771 15.1670000 2
19462 19463 19472 19473 1 180.0000771 15.1670000 2
19464 19463 19472 19470 1 180.0000771 15.1670000 2
19464 19463 19472 19473 1 180.0000771 15.1670000 2
19465 19464 19463 19472 1 180.0000771 15.1670000 2
19466 19464 19463 19472 1 180.0000771 15.1670000 2
19463 19464 19466 19467 1 180.0000771 15.1670000 2
19463 19464 19466 19468 1 180.0000771 15.1670000 2
19465 19464 19466 19467 1 180.0000771 15.1670000 2
19465 19464 19466 19468 1 180.0000771 15.1670000 2
19464 19466 19468 19469 1 180.0000771 15.1670000 2
19464 19466 19468 19470 1 180.0000771 15.1670000 2
19467 19466 19468 19469 1 180.0000771 15.1670000 2
19467 19466 19468 19470 1 180.0000771 15.1670000 2
19464 19468 19466 19467 4 180.0000771 4.6024000 2
19466 19468 19470 19471 1 180.0000771 15.1670000 2
19466 19468 19470 19472 1 180.0000771 15.1670000 2
19469 19468 19470 19471 1 180.0000771 15.1670000 2
19469 19468 19470 19472 1 180.0000771 15.1670000 2
19466 19470 19468 19469 4 180.0000771 4.6024000 2
19463 19470 19472 19473 4 180.0000771 4.6024000 2
19468 19470 19472 19473 1 180.0000771 15.1670000 2
19471 19470 19472 19473 1 180.0000771 15.1670000 2
19463 19472 19470 19468 1 180.0000771 15.1670000 2
19463 19472 19470 19471 1 180.0000771 15.1670000 2
19468 19472 19470 19471 4 180.0000771 4.6024000 2
19474 19475 19476 19477 1 180.0000771 15.1670000 2
19474 19475 19476 19478 1 180.0000771 15.1670000 2
19477 19475 19476 19478 4 180.0000771 4.6024000 2
19474 19475 19484 19476 4 180.0000771 4.6024000 2
19474 19475 19484 19482 1 180.0000771 15.1670000 2
19474 19475 19484 19485 1 180.0000771 15.1670000 2
19476 19475 19484 19482 1 180.0000771 15.1670000 2
19476 19475 19484 19485 1 180.0000771 15.1670000 2
19477 19476 19475 19484 1 180.0000771 15.1670000 2
19478 19476 19475 19484 1 180.0000771 15.1670000 2
19475 19476 19478 19479 1 180.0000771 15.1670000 2
19475 19476 19478 19480 1 180.0000771 15.1670000 2
19477 19476 19478 19479 1 180.0000771 15.1670000 2
19477 19476 19478 19480 1 180.0000771 15.1670000 2
19476 19478 19480 19481 1 180.0000771 15.1670000 2
19476 19478 19480 19482 1 180.0000771 15.1670000 2
19479 19478 19480 19481 1 180.0000771 15.1670000 2
19479 19478 19480 19482 1 180.0000771 15.1670000 2
19476 19480 19478 19479 4 180.0000771 4.6024000 2
19478 19480 19482 19483 1 180.0000771 15.1670000 2
19478 19480 19482 19484 1 180.0000771 15.1670000 2
19481 19480 19482 19483 1 180.0000771 15.1670000 2
19481 19480 19482 19484 1 180.0000771 15.1670000 2
19478 19482 19480 19481 4 180.0000771 4.6024000 2
19475 19482 19484 19485 4 180.0000771 4.6024000 2
19480 19482 19484 19485 1 180.0000771 15.1670000 2
19483 19482 19484 19485 1 180.0000771 15.1670000 2
19475 19484 19482 19480 1 180.0000771 15.1670000 2
19475 19484 19482 19483 1 180.0000771 15.1670000 2
19480 19484 19482 19483 4 180.0000771 4.6024000 2
19486 19487 19488 19489 1 180.0000771 15.1670000 2
19486 19487 19488 19490 1 180.0000771 15.1670000 2
19489 19487 19488 19490 4 180.0000771 4.6024000 2
19486 19487 19496 19488 4 180.0000771 4.6024000 2
19486 19487 19496 19494 1 180.0000771 15.1670000 2
19486 19487 19496 19497 1 180.0000771 15.1670000 2
19488 19487 19496 19494 1 180.0000771 15.1670000 2
19488 19487 19496 19497 1 180.0000771 15.1670000 2
19489 19488 19487 19496 1 180.0000771 15.1670000 2
19490 19488 19487 19496 1 180.0000771 15.1670000 2
19487 19488 19490 19491 1 180.0000771 15.1670000 2
19487 19488 19490 19492 1 180.0000771 15.1670000 2
19489 19488 19490 19491 1 180.0000771 15.1670000 2
19489 19488 19490 19492 1 180.0000771 15.1670000 2
19488 19490 19492 19493 1 180.0000771 15.1670000 2
19488 19490 19492 19494 1 180.0000771 15.1670000 2
19491 19490 19492 19493 1 180.0000771 15.1670000 2
19491 19490 19492 19494 1 180.0000771 15.1670000 2
19488 19492 19490 19491 4 180.0000771 4.6024000 2
19490 19492 19494 19495 1 180.0000771 15.1670000 2
19490 19492 19494 19496 1 180.0000771 15.1670000 2
19493 19492 19494 19495 1 180.0000771 15.1670000 2
19493 19492 19494 19496 1 180.0000771 15.1670000 2
19490 19494 19492 19493 4 180.0000771 4.6024000 2
19487 19494 19496 19497 4 180.0000771 4.6024000 2
19492 19494 19496 19497 1 180.0000771 15.1670000 2
19495 19494 19496 19497 1 180.0000771 15.1670000 2
19487 19496 19494 19492 1 180.0000771 15.1670000 2
19487 19496 19494 19495 1 180.0000771 15.1670000 2
19492 19496 19494 19495 4 180.0000771 4.6024000 2
19498 19499 19500 19501 1 180.0000771 15.1670000 2
19498 19499 19500 19502 1 180.0000771 15.1670000 2
19501 19499 19500 19502 4 180.0000771 4.6024000 2
19498 19499 19508 19500 4 180.0000771 4.6024000 2
19498 19499 19508 19506 1 180.0000771 15.1670000 2
19498 19499 19508 19509 1 180.0000771 15.1670000 2
19500 19499 19508 19506 1 180.0000771 15.1670000 2
19500 19499 19508 19509 1 180.0000771 15.1670000 2
19501 19500 19499 19508 1 180.0000771 15.1670000 2
19502 19500 19499 19508 1 180.0000771 15.1670000 2
19499 19500 19502 19503 1 180.0000771 15.1670000 2
19499 19500 19502 19504 1 180.0000771 15.1670000 2
19501 19500 19502 19503 1 180.0000771 15.1670000 2
19501 19500 19502 19504 1 180.0000771 15.1670000 2
19500 19502 19504 19505 1 180.0000771 15.1670000 2
19500 19502 19504 19506 1 180.0000771 15.1670000 2
19503 19502 19504 19505 1 180.0000771 15.1670000 2
19503 19502 19504 19506 1 180.0000771 15.1670000 2
19500 19504 19502 19503 4 180.0000771 4.6024000 2
19502 19504 19506 19507 1 180.0000771 15.1670000 2
19502 19504 19506 19508 1 180.0000771 15.1670000 2
19505 19504 19506 19507 1 180.0000771 15.1670000 2
19505 19504 19506 19508 1 180.0000771 15.1670000 2
19502 19506 19504 19505 4 180.0000771 4.6024000 2
19499 19506 19508 19509 4 180.0000771 4.6024000 2
19504 19506 19508 19509 1 180.0000771 15.1670000 2
19507 19506 19508 19509 1 180.0000771 15.1670000 2
19499 19508 19506 19504 1 180.0000771 15.1670000 2
19499 19508 19506 19507 1 180.0000771 15.1670000 2
19504 19508 19506 19507 4 180.0000771 4.6024000 2
19510 19511 19512 19513 1 180.0000771 15.1670000 2
19510 19511 19512 19514 1 180.0000771 15.1670000 2
19513 19511 19512 19514 4 180.0000771 4.6024000 2
19510 19511 19520 19512 4 180.0000771 4.6024000 2
19510 19511 19520 19518 1 180.0000771 15.1670000 2
19510 19511 19520 19521 1 180.0000771 15.1670000 2
19512 19511 19520 19518 1 180.0000771 15.1670000 2
19512 19511 19520 19521 1 180.0000771 15.1670000 2
19513 19512 19511 19520 1 180.0000771 15.1670000 2
19514 19512 19511 19520 1 180.0000771 15.1670000 2
19511 19512 19514 19515 1 180.0000771 15.1670000 2
19511 19512 19514 19516 1 180.0000771 15.1670000 2
19513 19512 19514 19515 1 180.0000771 15.1670000 2
19513 19512 19514 19516 1 180.0000771 15.1670000 2
19512 19514 19516 19517 1 180.0000771 15.1670000 2
19512 19514 19516 19518 1 180.0000771 15.1670000 2
19515 19514 19516 19517 1 180.0000771 15.1670000 2
19515 19514 19516 19518 1 180.0000771 15.1670000 2
19512 19516 19514 19515 4 180.0000771 4.6024000 2
19514 19516 19518 19519 1 180.0000771 15.1670000 2
19514 19516 19518 19520 1 180.0000771 15.1670000 2
19517 19516 19518 19519 1 180.0000771 15.1670000 2
19517 19516 19518 19520 1 180.0000771 15.1670000 2
19514 19518 19516 19517 4 180.0000771 4.6024000 2
19511 19518 19520 19521 4 180.0000771 4.6024000 2
19516 19518 19520 19521 1 180.0000771 15.1670000 2
19519 19518 19520 19521 1 180.0000771 15.1670000 2
19511 19520 19518 19516 1 180.0000771 15.1670000 2
19511 19520 19518 19519 1 180.0000771 15.1670000 2
19516 19520 19518 19519 4 180.0000771 4.6024000 2
19522 19523 19524 19525 1 180.0000771 15.1670000 2
19522 19523 19524 19526 1 180.0000771 15.1670000 2
19525 19523 19524 19526 4 180.0000771 4.6024000 2
19522 19523 19532 19524 4 180.0000771 4.6024000 2
19522 19523 19532 19530 1 180.0000771 15.1670000 2
19522 19523 19532 19533 1 180.0000771 15.1670000 2
19524 19523 19532 19530 1 180.0000771 15.1670000 2
19524 19523 19532 19533 1 180.0000771 15.1670000 2
19525 19524 19523 19532 1 180.0000771 15.1670000 2
19526 19524 19523 19532 1 180.0000771 15.1670000 2
19523 19524 19526 19527 1 180.0000771 15.1670000 2
19523 19524 19526 19528 1 180.0000771 15.1670000 2
19525 19524 19526 19527 1 180.0000771 15.1670000 2
19525 19524 19526 19528 1 180.0000771 15.1670000 2
19524 19526 19528 19529 1 180.0000771 15.1670000 2
19524 19526 19528 19530 1 180.0000771 15.1670000 2
19527 19526 19528 19529 1 180.0000771 15.1670000 2
19527 19526 19528 19530 1 180.0000771 15.1670000 2
19524 19528 19526 19527 4 180.0000771 4.6024000 2
19526 19528 19530 19531 1 180.0000771 15.1670000 2
19526 19528 19530 19532 1 180.0000771 15.1670000 2
19529 19528 19530 19531 1 180.0000771 15.1670000 2
19529 19528 19530 19532 1 180.0000771 15.1670000 2
19526 19530 19528 19529 4 180.0000771 4.6024000 2
19523 19530 19532 19533 4 180.0000771 4.6024000 2
19528 19530 19532 19533 1 180.0000771 15.1670000 2
19531 19530 19532 19533 1 180.0000771 15.1670000 2
19523 19532 19530 19528 1 180.0000771 15.1670000 2
19523 19532 19530 19531 1 180.0000771 15.1670000 2
19528 19532 19530 19531 4 180.0000771 4.6024000 2
19534 19535 19536 19537 1 180.0000771 15.1670000 2
19534 19535 19536 19538 1 180.0000771 15.1670000 2
19537 19535 19536 19538 4 180.0000771 4.6024000 2
19534 19535 19544 19536 4 180.0000771 4.6024000 2
19534 19535 19544 19542 1 180.0000771 15.1670000 2
19534 19535 19544 19545 1 180.0000771 15.1670000 2
19536 19535 19544 19542 1 180.0000771 15.1670000 2
19536 19535 19544 19545 1 180.0000771 15.1670000 2
19537 19536 19535 19544 1 180.0000771 15.1670000 2
19538 19536 19535 19544 1 180.0000771 15.1670000 2
19535 19536 19538 19539 1 180.0000771 15.1670000 2
19535 19536 19538 19540 1 180.0000771 15.1670000 2
19537 19536 19538 19539 1 180.0000771 15.1670000 2
19537 19536 19538 19540 1 180.0000771 15.1670000 2
19536 19538 19540 19541 1 180.0000771 15.1670000 2
19536 19538 19540 19542 1 180.0000771 15.1670000 2
19539 19538 19540 19541 1 180.0000771 15.1670000 2
19539 19538 19540 19542 1 180.0000771 15.1670000 2
19536 19540 19538 19539 4 180.0000771 4.6024000 2
19538 19540 19542 19543 1 180.0000771 15.1670000 2
19538 19540 19542 19544 1 180.0000771 15.1670000 2
19541 19540 19542 19543 1 180.0000771 15.1670000 2
19541 19540 19542 19544 1 180.0000771 15.1670000 2
19538 19542 19540 19541 4 180.0000771 4.6024000 2
19535 19542 19544 19545 4 180.0000771 4.6024000 2
19540 19542 19544 19545 1 180.0000771 15.1670000 2
19543 19542 19544 19545 1 180.0000771 15.1670000 2
19535 19544 19542 19540 1 180.0000771 15.1670000 2
19535 19544 19542 19543 1 180.0000771 15.1670000 2
19540 19544 19542 19543 4 180.0000771 4.6024000 2
19546 19547 19548 19549 1 180.0000771 15.1670000 2
19546 19547 19548 19550 1 180.0000771 15.1670000 2
19549 19547 19548 19550 4 180.0000771 4.6024000 2
19546 19547 19556 19548 4 180.0000771 4.6024000 2
19546 19547 19556 19554 1 180.0000771 15.1670000 2
19546 19547 19556 19557 1 180.0000771 15.1670000 2
19548 19547 19556 19554 1 180.0000771 15.1670000 2
19548 19547 19556 19557 1 180.0000771 15.1670000 2
19549 19548 19547 19556 1 180.0000771 15.1670000 2
19550 19548 19547 19556 1 180.0000771 15.1670000 2
19547 19548 19550 19551 1 180.0000771 15.1670000 2
19547 19548 19550 19552 1 180.0000771 15.1670000 2
19549 19548 19550 19551 1 180.0000771 15.1670000 2
19549 19548 19550 19552 1 180.0000771 15.1670000 2
19548 19550 19552 19553 1 180.0000771 15.1670000 2
19548 19550 19552 19554 1 180.0000771 15.1670000 2
19551 19550 19552 19553 1 180.0000771 15.1670000 2
19551 19550 19552 19554 1 180.0000771 15.1670000 2
19548 19552 19550 19551 4 180.0000771 4.6024000 2
19550 19552 19554 19555 1 180.0000771 15.1670000 2
19550 19552 19554 19556 1 180.0000771 15.1670000 2
19553 19552 19554 19555 1 180.0000771 15.1670000 2
19553 19552 19554 19556 1 180.0000771 15.1670000 2
19550 19554 19552 19553 4 180.0000771 4.6024000 2
19547 19554 19556 19557 4 180.0000771 4.6024000 2
19552 19554 19556 19557 1 180.0000771 15.1670000 2
19555 19554 19556 19557 1 180.0000771 15.1670000 2
19547 19556 19554 19552 1 180.0000771 15.1670000 2
19547 19556 19554 19555 1 180.0000771 15.1670000 2
19552 19556 19554 19555 4 180.0000771 4.6024000 2
19558 19559 19560 19561 1 180.0000771 15.1670000 2
19558 19559 19560 19562 1 180.0000771 15.1670000 2
19561 19559 19560 19562 4 180.0000771 4.6024000 2
19558 19559 19568 19560 4 180.0000771 4.6024000 2
19558 19559 19568 19566 1 180.0000771 15.1670000 2
19558 19559 19568 19569 1 180.0000771 15.1670000 2
19560 19559 19568 19566 1 180.0000771 15.1670000 2
19560 19559 19568 19569 1 180.0000771 15.1670000 2
19561 19560 19559 19568 1 180.0000771 15.1670000 2
19562 19560 19559 19568 1 180.0000771 15.1670000 2
19559 19560 19562 19563 1 180.0000771 15.1670000 2
19559 19560 19562 19564 1 180.0000771 15.1670000 2
19561 19560 19562 19563 1 180.0000771 15.1670000 2
19561 19560 19562 19564 1 180.0000771 15.1670000 2
19560 19562 19564 19565 1 180.0000771 15.1670000 2
19560 19562 19564 19566 1 180.0000771 15.1670000 2
19563 19562 19564 19565 1 180.0000771 15.1670000 2
19563 19562 19564 19566 1 180.0000771 15.1670000 2
19560 19564 19562 19563 4 180.0000771 4.6024000 2
19562 19564 19566 19567 1 180.0000771 15.1670000 2
19562 19564 19566 19568 1 180.0000771 15.1670000 2
19565 19564 19566 19567 1 180.0000771 15.1670000 2
19565 19564 19566 19568 1 180.0000771 15.1670000 2
19562 19566 19564 19565 4 180.0000771 4.6024000 2
19559 19566 19568 19569 4 180.0000771 4.6024000 2
19564 19566 19568 19569 1 180.0000771 15.1670000 2
19567 19566 19568 19569 1 180.0000771 15.1670000 2
19559 19568 19566 19564 1 180.0000771 15.1670000 2
19559 19568 19566 19567 1 180.0000771 15.1670000 2
19564 19568 19566 19567 4 180.0000771 4.6024000 2
19570 19571 19572 19573 1 180.0000771 15.1670000 2
19570 19571 19572 19574 1 180.0000771 15.1670000 2
19573 19571 19572 19574 4 180.0000771 4.6024000 2
19570 19571 19580 19572 4 180.0000771 4.6024000 2
19570 19571 19580 19578 1 180.0000771 15.1670000 2
19570 19571 19580 19581 1 180.0000771 15.1670000 2
19572 19571 19580 19578 1 180.0000771 15.1670000 2
19572 19571 19580 19581 1 180.0000771 15.1670000 2
19573 19572 19571 19580 1 180.0000771 15.1670000 2
19574 19572 19571 19580 1 180.0000771 15.1670000 2
19571 19572 19574 19575 1 180.0000771 15.1670000 2
19571 19572 19574 19576 1 180.0000771 15.1670000 2
19573 19572 19574 19575 1 180.0000771 15.1670000 2
19573 19572 19574 19576 1 180.0000771 15.1670000 2
19572 19574 19576 19577 1 180.0000771 15.1670000 2
19572 19574 19576 19578 1 180.0000771 15.1670000 2
19575 19574 19576 19577 1 180.0000771 15.1670000 2
19575 19574 19576 19578 1 180.0000771 15.1670000 2
19572 19576 19574 19575 4 180.0000771 4.6024000 2
19574 19576 19578 19579 1 180.0000771 15.1670000 2
19574 19576 19578 19580 1 180.0000771 15.1670000 2
19577 19576 19578 19579 1 180.0000771 15.1670000 2
19577 19576 19578 19580 1 180.0000771 15.1670000 2
19574 19578 19576 19577 4 180.0000771 4.6024000 2
19571 19578 19580 19581 4 180.0000771 4.6024000 2
19576 19578 19580 19581 1 180.0000771 15.1670000 2
19579 19578 19580 19581 1 180.0000771 15.1670000 2
19571 19580 19578 19576 1 180.0000771 15.1670000 2
19571 19580 19578 19579 1 180.0000771 15.1670000 2
19576 19580 19578 19579 4 180.0000771 4.6024000 2
19582 19583 19584 19585 1 180.0000771 15.1670000 2
19582 19583 19584 19586 1 180.0000771 15.1670000 2
19585 19583 19584 19586 4 180.0000771 4.6024000 2
19582 19583 19592 19584 4 180.0000771 4.6024000 2
19582 19583 19592 19590 1 180.0000771 15.1670000 2
19582 19583 19592 19593 1 180.0000771 15.1670000 2
19584 19583 19592 19590 1 180.0000771 15.1670000 2
19584 19583 19592 19593 1 180.0000771 15.1670000 2
19585 19584 19583 19592 1 180.0000771 15.1670000 2
19586 19584 19583 19592 1 180.0000771 15.1670000 2
19583 19584 19586 19587 1 180.0000771 15.1670000 2
19583 19584 19586 19588 1 180.0000771 15.1670000 2
19585 19584 19586 19587 1 180.0000771 15.1670000 2
19585 19584 19586 19588 1 180.0000771 15.1670000 2
19584 19586 19588 19589 1 180.0000771 15.1670000 2
19584 19586 19588 19590 1 180.0000771 15.1670000 2
19587 19586 19588 19589 1 180.0000771 15.1670000 2
19587 19586 19588 19590 1 180.0000771 15.1670000 2
19584 19588 19586 19587 4 180.0000771 4.6024000 2
19586 19588 19590 19591 1 180.0000771 15.1670000 2
19586 19588 19590 19592 1 180.0000771 15.1670000 2
19589 19588 19590 19591 1 180.0000771 15.1670000 2
19589 19588 19590 19592 1 180.0000771 15.1670000 2
19586 19590 19588 19589 4 180.0000771 4.6024000 2
19583 19590 19592 19593 4 180.0000771 4.6024000 2
19588 19590 19592 19593 1 180.0000771 15.1670000 2
19591 19590 19592 19593 1 180.0000771 15.1670000 2
19583 19592 19590 19588 1 180.0000771 15.1670000 2
19583 19592 19590 19591 1 180.0000771 15.1670000 2
19588 19592 19590 19591 4 180.0000771 4.6024000 2
19594 19595 19596 19597 1 180.0000771 15.1670000 2
19594 19595 19596 19598 1 180.0000771 15.1670000 2
19597 19595 19596 19598 4 180.0000771 4.6024000 2
19594 19595 19604 19596 4 180.0000771 4.6024000 2
19594 19595 19604 19602 1 180.0000771 15.1670000 2
19594 19595 19604 19605 1 180.0000771 15.1670000 2
19596 19595 19604 19602 1 180.0000771 15.1670000 2
19596 19595 19604 19605 1 180.0000771 15.1670000 2
19597 19596 19595 19604 1 180.0000771 15.1670000 2
19598 19596 19595 19604 1 180.0000771 15.1670000 2
19595 19596 19598 19599 1 180.0000771 15.1670000 2
19595 19596 19598 19600 1 180.0000771 15.1670000 2
19597 19596 19598 19599 1 180.0000771 15.1670000 2
19597 19596 19598 19600 1 180.0000771 15.1670000 2
19596 19598 19600 19601 1 180.0000771 15.1670000 2
19596 19598 19600 19602 1 180.0000771 15.1670000 2
19599 19598 19600 19601 1 180.0000771 15.1670000 2
19599 19598 19600 19602 1 180.0000771 15.1670000 2
19596 19600 19598 19599 4 180.0000771 4.6024000 2
19598 19600 19602 19603 1 180.0000771 15.1670000 2
19598 19600 19602 19604 1 180.0000771 15.1670000 2
19601 19600 19602 19603 1 180.0000771 15.1670000 2
19601 19600 19602 19604 1 180.0000771 15.1670000 2
19598 19602 19600 19601 4 180.0000771 4.6024000 2
19595 19602 19604 19605 4 180.0000771 4.6024000 2
19600 19602 19604 19605 1 180.0000771 15.1670000 2
19603 19602 19604 19605 1 180.0000771 15.1670000 2
19595 19604 19602 19600 1 180.0000771 15.1670000 2
19595 19604 19602 19603 1 180.0000771 15.1670000 2
19600 19604 19602 19603 4 180.0000771 4.6024000 2
19606 19607 19608 19609 1 180.0000771 15.1670000 2
19606 19607 19608 19610 1 180.0000771 15.1670000 2
19609 19607 19608 19610 4 180.0000771 4.6024000 2
19606 19607 19616 19608 4 180.0000771 4.6024000 2
19606 19607 19616 19614 1 180.0000771 15.1670000 2
19606 19607 19616 19617 1 180.0000771 15.1670000 2
19608 19607 19616 19614 1 180.0000771 15.1670000 2
19608 19607 19616 19617 1 180.0000771 15.1670000 2
19609 19608 19607 19616 1 180.0000771 15.1670000 2
19610 19608 19607 19616 1 180.0000771 15.1670000 2
19607 19608 19610 19611 1 180.0000771 15.1670000 2
19607 19608 19610 19612 1 180.0000771 15.1670000 2
19609 19608 19610 19611 1 180.0000771 15.1670000 2
19609 19608 19610 19612 1 180.0000771 15.1670000 2
19608 19610 19612 19613 1 180.0000771 15.1670000 2
19608 19610 19612 19614 1 180.0000771 15.1670000 2
19611 19610 19612 19613 1 180.0000771 15.1670000 2
19611 19610 19612 19614 1 180.0000771 15.1670000 2
19608 19612 19610 19611 4 180.0000771 4.6024000 2
19610 19612 19614 19615 1 180.0000771 15.1670000 2
19610 19612 19614 19616 1 180.0000771 15.1670000 2
19613 19612 19614 19615 1 180.0000771 15.1670000 2
19613 19612 19614 19616 1 180.0000771 15.1670000 2
19610 19614 19612 19613 4 180.0000771 4.6024000 2
19607 19614 19616 19617 4 180.0000771 4.6024000 2
19612 19614 19616 19617 1 180.0000771 15.1670000 2
19615 19614 19616 19617 1 180.0000771 15.1670000 2
19607 19616 19614 19612 1 180.0000771 15.1670000 2
19607 19616 19614 19615 1 180.0000771 15.1670000 2
19612 19616 19614 19615 4 180.0000771 4.6024000 2
19618 19619 19620 19621 1 180.0000771 15.1670000 2
19618 19619 19620 19622 1 180.0000771 15.1670000 2
19621 19619 19620 19622 4 180.0000771 4.6024000 2
19618 19619 19628 19620 4 180.0000771 4.6024000 2
19618 19619 19628 19626 1 180.0000771 15.1670000 2
19618 19619 19628 19629 1 180.0000771 15.1670000 2
19620 19619 19628 19626 1 180.0000771 15.1670000 2
19620 19619 19628 19629 1 180.0000771 15.1670000 2
19621 19620 19619 19628 1 180.0000771 15.1670000 2
19622 19620 19619 19628 1 180.0000771 15.1670000 2
19619 19620 19622 19623 1 180.0000771 15.1670000 2
19619 19620 19622 19624 1 180.0000771 15.1670000 2
19621 19620 19622 19623 1 180.0000771 15.1670000 2
19621 19620 19622 19624 1 180.0000771 15.1670000 2
19620 19622 19624 19625 1 180.0000771 15.1670000 2
19620 19622 19624 19626 1 180.0000771 15.1670000 2
19623 19622 19624 19625 1 180.0000771 15.1670000 2
19623 19622 19624 19626 1 180.0000771 15.1670000 2
19620 19624 19622 19623 4 180.0000771 4.6024000 2
19622 19624 19626 19627 1 180.0000771 15.1670000 2
19622 19624 19626 19628 1 180.0000771 15.1670000 2
19625 19624 19626 19627 1 180.0000771 15.1670000 2
19625 19624 19626 19628 1 180.0000771 15.1670000 2
19622 19626 19624 19625 4 180.0000771 4.6024000 2
19619 19626 19628 19629 4 180.0000771 4.6024000 2
19624 19626 19628 19629 1 180.0000771 15.1670000 2
19627 19626 19628 19629 1 180.0000771 15.1670000 2
19619 19628 19626 19624 1 180.0000771 15.1670000 2
19619 19628 19626 19627 1 180.0000771 15.1670000 2
19624 19628 19626 19627 4 180.0000771 4.6024000 2
19630 19631 19632 19633 1 180.0000771 15.1670000 2
19630 19631 19632 19634 1 180.0000771 15.1670000 2
19633 19631 19632 19634 4 180.0000771 4.6024000 2
19630 19631 19640 19632 4 180.0000771 4.6024000 2
19630 19631 19640 19638 1 180.0000771 15.1670000 2
19630 19631 19640 19641 1 180.0000771 15.1670000 2
19632 19631 19640 19638 1 180.0000771 15.1670000 2
19632 19631 19640 19641 1 180.0000771 15.1670000 2
19633 19632 19631 19640 1 180.0000771 15.1670000 2
19634 19632 19631 19640 1 180.0000771 15.1670000 2
19631 19632 19634 19635 1 180.0000771 15.1670000 2
19631 19632 19634 19636 1 180.0000771 15.1670000 2
19633 19632 19634 19635 1 180.0000771 15.1670000 2
19633 19632 19634 19636 1 180.0000771 15.1670000 2
19632 19634 19636 19637 1 180.0000771 15.1670000 2
19632 19634 19636 19638 1 180.0000771 15.1670000 2
19635 19634 19636 19637 1 180.0000771 15.1670000 2
19635 19634 19636 19638 1 180.0000771 15.1670000 2
19632 19636 19634 19635 4 180.0000771 4.6024000 2
19634 19636 19638 19639 1 180.0000771 15.1670000 2
19634 19636 19638 19640 1 180.0000771 15.1670000 2
19637 19636 19638 19639 1 180.0000771 15.1670000 2
19637 19636 19638 19640 1 180.0000771 15.1670000 2
19634 19638 19636 19637 4 180.0000771 4.6024000 2
19631 19638 19640 19641 4 180.0000771 4.6024000 2
19636 19638 19640 19641 1 180.0000771 15.1670000 2
19639 19638 19640 19641 1 180.0000771 15.1670000 2
19631 19640 19638 19636 1 180.0000771 15.1670000 2
19631 19640 19638 19639 1 180.0000771 15.1670000 2
19636 19640 19638 19639 4 180.0000771 4.6024000 2
19642 19643 19644 19645 1 180.0000771 15.1670000 2
19642 19643 19644 19646 1 180.0000771 15.1670000 2
19645 19643 19644 19646 4 180.0000771 4.6024000 2
19642 19643 19652 19644 4 180.0000771 4.6024000 2
19642 19643 19652 19650 1 180.0000771 15.1670000 2
19642 19643 19652 19653 1 180.0000771 15.1670000 2
19644 19643 19652 19650 1 180.0000771 15.1670000 2
19644 19643 19652 19653 1 180.0000771 15.1670000 2
19645 19644 19643 19652 1 180.0000771 15.1670000 2
19646 19644 19643 19652 1 180.0000771 15.1670000 2
19643 19644 19646 19647 1 180.0000771 15.1670000 2
19643 19644 19646 19648 1 180.0000771 15.1670000 2
19645 19644 19646 19647 1 180.0000771 15.1670000 2
19645 19644 19646 19648 1 180.0000771 15.1670000 2
19644 19646 19648 19649 1 180.0000771 15.1670000 2
19644 19646 19648 19650 1 180.0000771 15.1670000 2
19647 19646 19648 19649 1 180.0000771 15.1670000 2
19647 19646 19648 19650 1 180.0000771 15.1670000 2
19644 19648 19646 19647 4 180.0000771 4.6024000 2
19646 19648 19650 19651 1 180.0000771 15.1670000 2
19646 19648 19650 19652 1 180.0000771 15.1670000 2
19649 19648 19650 19651 1 180.0000771 15.1670000 2
19649 19648 19650 19652 1 180.0000771 15.1670000 2
19646 19650 19648 19649 4 180.0000771 4.6024000 2
19643 19650 19652 19653 4 180.0000771 4.6024000 2
19648 19650 19652 19653 1 180.0000771 15.1670000 2
19651 19650 19652 19653 1 180.0000771 15.1670000 2
19643 19652 19650 19648 1 180.0000771 15.1670000 2
19643 19652 19650 19651 1 180.0000771 15.1670000 2
19648 19652 19650 19651 4 180.0000771 4.6024000 2
19654 19655 19656 19657 1 180.0000771 15.1670000 2
19654 19655 19656 19658 1 180.0000771 15.1670000 2
19657 19655 19656 19658 4 180.0000771 4.6024000 2
19654 19655 19664 19656 4 180.0000771 4.6024000 2
19654 19655 19664 19662 1 180.0000771 15.1670000 2
19654 19655 19664 19665 1 180.0000771 15.1670000 2
19656 19655 19664 19662 1 180.0000771 15.1670000 2
19656 19655 19664 19665 1 180.0000771 15.1670000 2
19657 19656 19655 19664 1 180.0000771 15.1670000 2
19658 19656 19655 19664 1 180.0000771 15.1670000 2
19655 19656 19658 19659 1 180.0000771 15.1670000 2
19655 19656 19658 19660 1 180.0000771 15.1670000 2
19657 19656 19658 19659 1 180.0000771 15.1670000 2
19657 19656 19658 19660 1 180.0000771 15.1670000 2
19656 19658 19660 19661 1 180.0000771 15.1670000 2
19656 19658 19660 19662 1 180.0000771 15.1670000 2
19659 19658 19660 19661 1 180.0000771 15.1670000 2
19659 19658 19660 19662 1 180.0000771 15.1670000 2
19656 19660 19658 19659 4 180.0000771 4.6024000 2
19658 19660 19662 19663 1 180.0000771 15.1670000 2
19658 19660 19662 19664 1 180.0000771 15.1670000 2
19661 19660 19662 19663 1 180.0000771 15.1670000 2
19661 19660 19662 19664 1 180.0000771 15.1670000 2
19658 19662 19660 19661 4 180.0000771 4.6024000 2
19655 19662 19664 19665 4 180.0000771 4.6024000 2
19660 19662 19664 19665 1 180.0000771 15.1670000 2
19663 19662 19664 19665 1 180.0000771 15.1670000 2
19655 19664 19662 19660 1 180.0000771 15.1670000 2
19655 19664 19662 19663 1 180.0000771 15.1670000 2
19660 19664 19662 19663 4 180.0000771 4.6024000 2
19666 19667 19668 19669 1 180.0000771 15.1670000 2
19666 19667 19668 19670 1 180.0000771 15.1670000 2
19669 19667 19668 19670 4 180.0000771 4.6024000 2
19666 19667 19676 19668 4 180.0000771 4.6024000 2
19666 19667 19676 19674 1 180.0000771 15.1670000 2
19666 19667 19676 19677 1 180.0000771 15.1670000 2
19668 19667 19676 19674 1 180.0000771 15.1670000 2
19668 19667 19676 19677 1 180.0000771 15.1670000 2
19669 19668 19667 19676 1 180.0000771 15.1670000 2
19670 19668 19667 19676 1 180.0000771 15.1670000 2
19667 19668 19670 19671 1 180.0000771 15.1670000 2
19667 19668 19670 19672 1 180.0000771 15.1670000 2
19669 19668 19670 19671 1 180.0000771 15.1670000 2
19669 19668 19670 19672 1 180.0000771 15.1670000 2
19668 19670 19672 19673 1 180.0000771 15.1670000 2
19668 19670 19672 19674 1 180.0000771 15.1670000 2
19671 19670 19672 19673 1 180.0000771 15.1670000 2
19671 19670 19672 19674 1 180.0000771 15.1670000 2
19668 19672 19670 19671 4 180.0000771 4.6024000 2
19670 19672 19674 19675 1 180.0000771 15.1670000 2
19670 19672 19674 19676 1 180.0000771 15.1670000 2
19673 19672 19674 19675 1 180.0000771 15.1670000 2
19673 19672 19674 19676 1 180.0000771 15.1670000 2
19670 19674 19672 19673 4 180.0000771 4.6024000 2
19667 19674 19676 19677 4 180.0000771 4.6024000 2
19672 19674 19676 19677 1 180.0000771 15.1670000 2
19675 19674 19676 19677 1 180.0000771 15.1670000 2
19667 19676 19674 19672 1 180.0000771 15.1670000 2
19667 19676 19674 19675 1 180.0000771 15.1670000 2
19672 19676 19674 19675 4 180.0000771 4.6024000 2
19678 19679 19680 19681 1 180.0000771 15.1670000 2
19678 19679 19680 19682 1 180.0000771 15.1670000 2
19681 19679 19680 19682 4 180.0000771 4.6024000 2
19678 19679 19688 19680 4 180.0000771 4.6024000 2
19678 19679 19688 19686 1 180.0000771 15.1670000 2
19678 19679 19688 19689 1 180.0000771 15.1670000 2
19680 19679 19688 19686 1 180.0000771 15.1670000 2
19680 19679 19688 19689 1 180.0000771 15.1670000 2
19681 19680 19679 19688 1 180.0000771 15.1670000 2
19682 19680 19679 19688 1 180.0000771 15.1670000 2
19679 19680 19682 19683 1 180.0000771 15.1670000 2
19679 19680 19682 19684 1 180.0000771 15.1670000 2
19681 19680 19682 19683 1 180.0000771 15.1670000 2
19681 19680 19682 19684 1 180.0000771 15.1670000 2
19680 19682 19684 19685 1 180.0000771 15.1670000 2
19680 19682 19684 19686 1 180.0000771 15.1670000 2
19683 19682 19684 19685 1 180.0000771 15.1670000 2
19683 19682 19684 19686 1 180.0000771 15.1670000 2
19680 19684 19682 19683 4 180.0000771 4.6024000 2
19682 19684 19686 19687 1 180.0000771 15.1670000 2
19682 19684 19686 19688 1 180.0000771 15.1670000 2
19685 19684 19686 19687 1 180.0000771 15.1670000 2
19685 19684 19686 19688 1 180.0000771 15.1670000 2
19682 19686 19684 19685 4 180.0000771 4.6024000 2
19679 19686 19688 19689 4 180.0000771 4.6024000 2
19684 19686 19688 19689 1 180.0000771 15.1670000 2
19687 19686 19688 19689 1 180.0000771 15.1670000 2
19679 19688 19686 19684 1 180.0000771 15.1670000 2
19679 19688 19686 19687 1 180.0000771 15.1670000 2
19684 19688 19686 19687 4 180.0000771 4.6024000 2
19690 19691 19692 19693 1 180.0000771 15.1670000 2
19690 19691 19692 19694 1 180.0000771 15.1670000 2
19693 19691 19692 19694 4 180.0000771 4.6024000 2
19690 19691 19700 19692 4 180.0000771 4.6024000 2
19690 19691 19700 19698 1 180.0000771 15.1670000 2
19690 19691 19700 19701 1 180.0000771 15.1670000 2
19692 19691 19700 19698 1 180.0000771 15.1670000 2
19692 19691 19700 19701 1 180.0000771 15.1670000 2
19693 19692 19691 19700 1 180.0000771 15.1670000 2
19694 19692 19691 19700 1 180.0000771 15.1670000 2
19691 19692 19694 19695 1 180.0000771 15.1670000 2
19691 19692 19694 19696 1 180.0000771 15.1670000 2
19693 19692 19694 19695 1 180.0000771 15.1670000 2
19693 19692 19694 19696 1 180.0000771 15.1670000 2
19692 19694 19696 19697 1 180.0000771 15.1670000 2
19692 19694 19696 19698 1 180.0000771 15.1670000 2
19695 19694 19696 19697 1 180.0000771 15.1670000 2
19695 19694 19696 19698 1 180.0000771 15.1670000 2
19692 19696 19694 19695 4 180.0000771 4.6024000 2
19694 19696 19698 19699 1 180.0000771 15.1670000 2
19694 19696 19698 19700 1 180.0000771 15.1670000 2
19697 19696 19698 19699 1 180.0000771 15.1670000 2
19697 19696 19698 19700 1 180.0000771 15.1670000 2
19694 19698 19696 19697 4 180.0000771 4.6024000 2
19691 19698 19700 19701 4 180.0000771 4.6024000 2
19696 19698 19700 19701 1 180.0000771 15.1670000 2
19699 19698 19700 19701 1 180.0000771 15.1670000 2
19691 19700 19698 19696 1 180.0000771 15.1670000 2
19691 19700 19698 19699 1 180.0000771 15.1670000 2
19696 19700 19698 19699 4 180.0000771 4.6024000 2
19702 19703 19704 19705 1 180.0000771 15.1670000 2
19702 19703 19704 19706 1 180.0000771 15.1670000 2
19705 19703 19704 19706 4 180.0000771 4.6024000 2
19702 19703 19712 19704 4 180.0000771 4.6024000 2
19702 19703 19712 19710 1 180.0000771 15.1670000 2
19702 19703 19712 19713 1 180.0000771 15.1670000 2
19704 19703 19712 19710 1 180.0000771 15.1670000 2
19704 19703 19712 19713 1 180.0000771 15.1670000 2
19705 19704 19703 19712 1 180.0000771 15.1670000 2
19706 19704 19703 19712 1 180.0000771 15.1670000 2
19703 19704 19706 19707 1 180.0000771 15.1670000 2
19703 19704 19706 19708 1 180.0000771 15.1670000 2
19705 19704 19706 19707 1 180.0000771 15.1670000 2
19705 19704 19706 19708 1 180.0000771 15.1670000 2
19704 19706 19708 19709 1 180.0000771 15.1670000 2
19704 19706 19708 19710 1 180.0000771 15.1670000 2
19707 19706 19708 19709 1 180.0000771 15.1670000 2
19707 19706 19708 19710 1 180.0000771 15.1670000 2
19704 19708 19706 19707 4 180.0000771 4.6024000 2
19706 19708 19710 19711 1 180.0000771 15.1670000 2
19706 19708 19710 19712 1 180.0000771 15.1670000 2
19709 19708 19710 19711 1 180.0000771 15.1670000 2
19709 19708 19710 19712 1 180.0000771 15.1670000 2
19706 19710 19708 19709 4 180.0000771 4.6024000 2
19703 19710 19712 19713 4 180.0000771 4.6024000 2
19708 19710 19712 19713 1 180.0000771 15.1670000 2
19711 19710 19712 19713 1 180.0000771 15.1670000 2
19703 19712 19710 19708 1 180.0000771 15.1670000 2
19703 19712 19710 19711 1 180.0000771 15.1670000 2
19708 19712 19710 19711 4 180.0000771 4.6024000 2
19714 19715 19716 19717 1 180.0000771 15.1670000 2
19714 19715 19716 19718 1 180.0000771 15.1670000 2
19717 19715 19716 19718 4 180.0000771 4.6024000 2
19714 19715 19724 19716 4 180.0000771 4.6024000 2
19714 19715 19724 19722 1 180.0000771 15.1670000 2
19714 19715 19724 19725 1 180.0000771 15.1670000 2
19716 19715 19724 19722 1 180.0000771 15.1670000 2
19716 19715 19724 19725 1 180.0000771 15.1670000 2
19717 19716 19715 19724 1 180.0000771 15.1670000 2
19718 19716 19715 19724 1 180.0000771 15.1670000 2
19715 19716 19718 19719 1 180.0000771 15.1670000 2
19715 19716 19718 19720 1 180.0000771 15.1670000 2
19717 19716 19718 19719 1 180.0000771 15.1670000 2
19717 19716 19718 19720 1 180.0000771 15.1670000 2
19716 19718 19720 19721 1 180.0000771 15.1670000 2
19716 19718 19720 19722 1 180.0000771 15.1670000 2
19719 19718 19720 19721 1 180.0000771 15.1670000 2
19719 19718 19720 19722 1 180.0000771 15.1670000 2
19716 19720 19718 19719 4 180.0000771 4.6024000 2
19718 19720 19722 19723 1 180.0000771 15.1670000 2
19718 19720 19722 19724 1 180.0000771 15.1670000 2
19721 19720 19722 19723 1 180.0000771 15.1670000 2
19721 19720 19722 19724 1 180.0000771 15.1670000 2
19718 19722 19720 19721 4 180.0000771 4.6024000 2
19715 19722 19724 19725 4 180.0000771 4.6024000 2
19720 19722 19724 19725 1 180.0000771 15.1670000 2
19723 19722 19724 19725 1 180.0000771 15.1670000 2
19715 19724 19722 19720 1 180.0000771 15.1670000 2
19715 19724 19722 19723 1 180.0000771 15.1670000 2
19720 19724 19722 19723 4 180.0000771 4.6024000 2
19726 19727 19728 19729 1 180.0000771 15.1670000 2
19726 19727 19728 19730 1 180.0000771 15.1670000 2
19729 19727 19728 19730 4 180.0000771 4.6024000 2
19726 19727 19736 19728 4 180.0000771 4.6024000 2
19726 19727 19736 19734 1 180.0000771 15.1670000 2
19726 19727 19736 19737 1 180.0000771 15.1670000 2
19728 19727 19736 19734 1 180.0000771 15.1670000 2
19728 19727 19736 19737 1 180.0000771 15.1670000 2
19729 19728 19727 19736 1 180.0000771 15.1670000 2
19730 19728 19727 19736 1 180.0000771 15.1670000 2
19727 19728 19730 19731 1 180.0000771 15.1670000 2
19727 19728 19730 19732 1 180.0000771 15.1670000 2
19729 19728 19730 19731 1 180.0000771 15.1670000 2
19729 19728 19730 19732 1 180.0000771 15.1670000 2
19728 19730 19732 19733 1 180.0000771 15.1670000 2
19728 19730 19732 19734 1 180.0000771 15.1670000 2
19731 19730 19732 19733 1 180.0000771 15.1670000 2
19731 19730 19732 19734 1 180.0000771 15.1670000 2
19728 19732 19730 19731 4 180.0000771 4.6024000 2
19730 19732 19734 19735 1 180.0000771 15.1670000 2
19730 19732 19734 19736 1 180.0000771 15.1670000 2
19733 19732 19734 19735 1 180.0000771 15.1670000 2
19733 19732 19734 19736 1 180.0000771 15.1670000 2
19730 19734 19732 19733 4 180.0000771 4.6024000 2
19727 19734 19736 19737 4 180.0000771 4.6024000 2
19732 19734 19736 19737 1 180.0000771 15.1670000 2
19735 19734 19736 19737 1 180.0000771 15.1670000 2
19727 19736 19734 19732 1 180.0000771 15.1670000 2
19727 19736 19734 19735 1 180.0000771 15.1670000 2
19732 19736 19734 19735 4 180.0000771 4.6024000 2
19738 19739 19740 19741 1 180.0000771 15.1670000 2
19738 19739 19740 19742 1 180.0000771 15.1670000 2
19741 19739 19740 19742 4 180.0000771 4.6024000 2
19738 19739 19748 19740 4 180.0000771 4.6024000 2
19738 19739 19748 19746 1 180.0000771 15.1670000 2
19738 19739 19748 19749 1 180.0000771 15.1670000 2
19740 19739 19748 19746 1 180.0000771 15.1670000 2
19740 19739 19748 19749 1 180.0000771 15.1670000 2
19741 19740 19739 19748 1 180.0000771 15.1670000 2
19742 19740 19739 19748 1 180.0000771 15.1670000 2
19739 19740 19742 19743 1 180.0000771 15.1670000 2
19739 19740 19742 19744 1 180.0000771 15.1670000 2
19741 19740 19742 19743 1 180.0000771 15.1670000 2
19741 19740 19742 19744 1 180.0000771 15.1670000 2
19740 19742 19744 19745 1 180.0000771 15.1670000 2
19740 19742 19744 19746 1 180.0000771 15.1670000 2
19743 19742 19744 19745 1 180.0000771 15.1670000 2
19743 19742 19744 19746 1 180.0000771 15.1670000 2
19740 19744 19742 19743 4 180.0000771 4.6024000 2
19742 19744 19746 19747 1 180.0000771 15.1670000 2
19742 19744 19746 19748 1 180.0000771 15.1670000 2
19745 19744 19746 19747 1 180.0000771 15.1670000 2
19745 19744 19746 19748 1 180.0000771 15.1670000 2
19742 19746 19744 19745 4 180.0000771 4.6024000 2
19739 19746 19748 19749 4 180.0000771 4.6024000 2
19744 19746 19748 19749 1 180.0000771 15.1670000 2
19747 19746 19748 19749 1 180.0000771 15.1670000 2
19739 19748 19746 19744 1 180.0000771 15.1670000 2
19739 19748 19746 19747 1 180.0000771 15.1670000 2
19744 19748 19746 19747 4 180.0000771 4.6024000 2
19750 19751 19752 19753 1 180.0000771 15.1670000 2
19750 19751 19752 19754 1 180.0000771 15.1670000 2
19753 19751 19752 19754 4 180.0000771 4.6024000 2
19750 19751 19760 19752 4 180.0000771 4.6024000 2
19750 19751 19760 19758 1 180.0000771 15.1670000 2
19750 19751 19760 19761 1 180.0000771 15.1670000 2
19752 19751 19760 19758 1 180.0000771 15.1670000 2
19752 19751 19760 19761 1 180.0000771 15.1670000 2
19753 19752 19751 19760 1 180.0000771 15.1670000 2
19754 19752 19751 19760 1 180.0000771 15.1670000 2
19751 19752 19754 19755 1 180.0000771 15.1670000 2
19751 19752 19754 19756 1 180.0000771 15.1670000 2
19753 19752 19754 19755 1 180.0000771 15.1670000 2
19753 19752 19754 19756 1 180.0000771 15.1670000 2
19752 19754 19756 19757 1 180.0000771 15.1670000 2
19752 19754 19756 19758 1 180.0000771 15.1670000 2
19755 19754 19756 19757 1 180.0000771 15.1670000 2
19755 19754 19756 19758 1 180.0000771 15.1670000 2
19752 19756 19754 19755 4 180.0000771 4.6024000 2
19754 19756 19758 19759 1 180.0000771 15.1670000 2
19754 19756 19758 19760 1 180.0000771 15.1670000 2
19757 19756 19758 19759 1 180.0000771 15.1670000 2
19757 19756 19758 19760 1 180.0000771 15.1670000 2
19754 19758 19756 19757 4 180.0000771 4.6024000 2
19751 19758 19760 19761 4 180.0000771 4.6024000 2
19756 19758 19760 19761 1 180.0000771 15.1670000 2
19759 19758 19760 19761 1 180.0000771 15.1670000 2
19751 19760 19758 19756 1 180.0000771 15.1670000 2
19751 19760 19758 19759 1 180.0000771 15.1670000 2
19756 19760 19758 19759 4 180.0000771 4.6024000 2
19762 19763 19764 19765 1 180.0000771 15.1670000 2
19762 19763 19764 19766 1 180.0000771 15.1670000 2
19765 19763 19764 19766 4 180.0000771 4.6024000 2
19762 19763 19772 19764 4 180.0000771 4.6024000 2
19762 19763 19772 19770 1 180.0000771 15.1670000 2
19762 19763 19772 19773 1 180.0000771 15.1670000 2
19764 19763 19772 19770 1 180.0000771 15.1670000 2
19764 19763 19772 19773 1 180.0000771 15.1670000 2
19765 19764 19763 19772 1 180.0000771 15.1670000 2
19766 19764 19763 19772 1 180.0000771 15.1670000 2
19763 19764 19766 19767 1 180.0000771 15.1670000 2
19763 19764 19766 19768 1 180.0000771 15.1670000 2
19765 19764 19766 19767 1 180.0000771 15.1670000 2
19765 19764 19766 19768 1 180.0000771 15.1670000 2
19764 19766 19768 19769 1 180.0000771 15.1670000 2
19764 19766 19768 19770 1 180.0000771 15.1670000 2
19767 19766 19768 19769 1 180.0000771 15.1670000 2
19767 19766 19768 19770 1 180.0000771 15.1670000 2
19764 19768 19766 19767 4 180.0000771 4.6024000 2
19766 19768 19770 19771 1 180.0000771 15.1670000 2
19766 19768 19770 19772 1 180.0000771 15.1670000 2
19769 19768 19770 19771 1 180.0000771 15.1670000 2
19769 19768 19770 19772 1 180.0000771 15.1670000 2
19766 19770 19768 19769 4 180.0000771 4.6024000 2
19763 19770 19772 19773 4 180.0000771 4.6024000 2
19768 19770 19772 19773 1 180.0000771 15.1670000 2
19771 19770 19772 19773 1 180.0000771 15.1670000 2
19763 19772 19770 19768 1 180.0000771 15.1670000 2
19763 19772 19770 19771 1 180.0000771 15.1670000 2
19768 19772 19770 19771 4 180.0000771 4.6024000 2
19774 19775 19776 19777 1 180.0000771 15.1670000 2
19774 19775 19776 19778 1 180.0000771 15.1670000 2
19777 19775 19776 19778 4 180.0000771 4.6024000 2
19774 19775 19784 19776 4 180.0000771 4.6024000 2
19774 19775 19784 19782 1 180.0000771 15.1670000 2
19774 19775 19784 19785 1 180.0000771 15.1670000 2
19776 19775 19784 19782 1 180.0000771 15.1670000 2
19776 19775 19784 19785 1 180.0000771 15.1670000 2
19777 19776 19775 19784 1 180.0000771 15.1670000 2
19778 19776 19775 19784 1 180.0000771 15.1670000 2
19775 19776 19778 19779 1 180.0000771 15.1670000 2
19775 19776 19778 19780 1 180.0000771 15.1670000 2
19777 19776 19778 19779 1 180.0000771 15.1670000 2
19777 19776 19778 19780 1 180.0000771 15.1670000 2
19776 19778 19780 19781 1 180.0000771 15.1670000 2
19776 19778 19780 19782 1 180.0000771 15.1670000 2
19779 19778 19780 19781 1 180.0000771 15.1670000 2
19779 19778 19780 19782 1 180.0000771 15.1670000 2
19776 19780 19778 19779 4 180.0000771 4.6024000 2
19778 19780 19782 19783 1 180.0000771 15.1670000 2
19778 19780 19782 19784 1 180.0000771 15.1670000 2
19781 19780 19782 19783 1 180.0000771 15.1670000 2
19781 19780 19782 19784 1 180.0000771 15.1670000 2
19778 19782 19780 19781 4 180.0000771 4.6024000 2
19775 19782 19784 19785 4 180.0000771 4.6024000 2
19780 19782 19784 19785 1 180.0000771 15.1670000 2
19783 19782 19784 19785 1 180.0000771 15.1670000 2
19775 19784 19782 19780 1 180.0000771 15.1670000 2
19775 19784 19782 19783 1 180.0000771 15.1670000 2
19780 19784 19782 19783 4 180.0000771 4.6024000 2
19786 19787 19788 19789 1 180.0000771 15.1670000 2
19786 19787 19788 19790 1 180.0000771 15.1670000 2
19789 19787 19788 19790 4 180.0000771 4.6024000 2
19786 19787 19796 19788 4 180.0000771 4.6024000 2
19786 19787 19796 19794 1 180.0000771 15.1670000 2
19786 19787 19796 19797 1 180.0000771 15.1670000 2
19788 19787 19796 19794 1 180.0000771 15.1670000 2
19788 19787 19796 19797 1 180.0000771 15.1670000 2
19789 19788 19787 19796 1 180.0000771 15.1670000 2
19790 19788 19787 19796 1 180.0000771 15.1670000 2
19787 19788 19790 19791 1 180.0000771 15.1670000 2
19787 19788 19790 19792 1 180.0000771 15.1670000 2
19789 19788 19790 19791 1 180.0000771 15.1670000 2
19789 19788 19790 19792 1 180.0000771 15.1670000 2
19788 19790 19792 19793 1 180.0000771 15.1670000 2
19788 19790 19792 19794 1 180.0000771 15.1670000 2
19791 19790 19792 19793 1 180.0000771 15.1670000 2
19791 19790 19792 19794 1 180.0000771 15.1670000 2
19788 19792 19790 19791 4 180.0000771 4.6024000 2
19790 19792 19794 19795 1 180.0000771 15.1670000 2
19790 19792 19794 19796 1 180.0000771 15.1670000 2
19793 19792 19794 19795 1 180.0000771 15.1670000 2
19793 19792 19794 19796 1 180.0000771 15.1670000 2
19790 19794 19792 19793 4 180.0000771 4.6024000 2
19787 19794 19796 19797 4 180.0000771 4.6024000 2
19792 19794 19796 19797 1 180.0000771 15.1670000 2
19795 19794 19796 19797 1 180.0000771 15.1670000 2
19787 19796 19794 19792 1 180.0000771 15.1670000 2
19787 19796 19794 19795 1 180.0000771 15.1670000 2
19792 19796 19794 19795 4 180.0000771 4.6024000 2
19798 19799 19800 19801 1 180.0000771 15.1670000 2
19798 19799 19800 19802 1 180.0000771 15.1670000 2
19801 19799 19800 19802 4 180.0000771 4.6024000 2
19798 19799 19808 19800 4 180.0000771 4.6024000 2
19798 19799 19808 19806 1 180.0000771 15.1670000 2
19798 19799 19808 19809 1 180.0000771 15.1670000 2
19800 19799 19808 19806 1 180.0000771 15.1670000 2
19800 19799 19808 19809 1 180.0000771 15.1670000 2
19801 19800 19799 19808 1 180.0000771 15.1670000 2
19802 19800 19799 19808 1 180.0000771 15.1670000 2
19799 19800 19802 19803 1 180.0000771 15.1670000 2
19799 19800 19802 19804 1 180.0000771 15.1670000 2
19801 19800 19802 19803 1 180.0000771 15.1670000 2
19801 19800 19802 19804 1 180.0000771 15.1670000 2
19800 19802 19804 19805 1 180.0000771 15.1670000 2
19800 19802 19804 19806 1 180.0000771 15.1670000 2
19803 19802 19804 19805 1 180.0000771 15.1670000 2
19803 19802 19804 19806 1 180.0000771 15.1670000 2
19800 19804 19802 19803 4 180.0000771 4.6024000 2
19802 19804 19806 19807 1 180.0000771 15.1670000 2
19802 19804 19806 19808 1 180.0000771 15.1670000 2
19805 19804 19806 19807 1 180.0000771 15.1670000 2
19805 19804 19806 19808 1 180.0000771 15.1670000 2
19802 19806 19804 19805 4 180.0000771 4.6024000 2
19799 19806 19808 19809 4 180.0000771 4.6024000 2
19804 19806 19808 19809 1 180.0000771 15.1670000 2
19807 19806 19808 19809 1 180.0000771 15.1670000 2
19799 19808 19806 19804 1 180.0000771 15.1670000 2
19799 19808 19806 19807 1 180.0000771 15.1670000 2
19804 19808 19806 19807 4 180.0000771 4.6024000 2
19810 19811 19812 19813 1 180.0000771 15.1670000 2
19810 19811 19812 19814 1 180.0000771 15.1670000 2
19813 19811 19812 19814 4 180.0000771 4.6024000 2
19810 19811 19820 19812 4 180.0000771 4.6024000 2
19810 19811 19820 19818 1 180.0000771 15.1670000 2
19810 19811 19820 19821 1 180.0000771 15.1670000 2
19812 19811 19820 19818 1 180.0000771 15.1670000 2
19812 19811 19820 19821 1 180.0000771 15.1670000 2
19813 19812 19811 19820 1 180.0000771 15.1670000 2
19814 19812 19811 19820 1 180.0000771 15.1670000 2
19811 19812 19814 19815 1 180.0000771 15.1670000 2
19811 19812 19814 19816 1 180.0000771 15.1670000 2
19813 19812 19814 19815 1 180.0000771 15.1670000 2
19813 19812 19814 19816 1 180.0000771 15.1670000 2
19812 19814 19816 19817 1 180.0000771 15.1670000 2
19812 19814 19816 19818 1 180.0000771 15.1670000 2
19815 19814 19816 19817 1 180.0000771 15.1670000 2
19815 19814 19816 19818 1 180.0000771 15.1670000 2
19812 19816 19814 19815 4 180.0000771 4.6024000 2
19814 19816 19818 19819 1 180.0000771 15.1670000 2
19814 19816 19818 19820 1 180.0000771 15.1670000 2
19817 19816 19818 19819 1 180.0000771 15.1670000 2
19817 19816 19818 19820 1 180.0000771 15.1670000 2
19814 19818 19816 19817 4 180.0000771 4.6024000 2
19811 19818 19820 19821 4 180.0000771 4.6024000 2
19816 19818 19820 19821 1 180.0000771 15.1670000 2
19819 19818 19820 19821 1 180.0000771 15.1670000 2
19811 19820 19818 19816 1 180.0000771 15.1670000 2
19811 19820 19818 19819 1 180.0000771 15.1670000 2
19816 19820 19818 19819 4 180.0000771 4.6024000 2
19822 19823 19824 19825 1 180.0000771 15.1670000 2
19822 19823 19824 19826 1 180.0000771 15.1670000 2
19825 19823 19824 19826 4 180.0000771 4.6024000 2
19822 19823 19832 19824 4 180.0000771 4.6024000 2
19822 19823 19832 19830 1 180.0000771 15.1670000 2
19822 19823 19832 19833 1 180.0000771 15.1670000 2
19824 19823 19832 19830 1 180.0000771 15.1670000 2
19824 19823 19832 19833 1 180.0000771 15.1670000 2
19825 19824 19823 19832 1 180.0000771 15.1670000 2
19826 19824 19823 19832 1 180.0000771 15.1670000 2
19823 19824 19826 19827 1 180.0000771 15.1670000 2
19823 19824 19826 19828 1 180.0000771 15.1670000 2
19825 19824 19826 19827 1 180.0000771 15.1670000 2
19825 19824 19826 19828 1 180.0000771 15.1670000 2
19824 19826 19828 19829 1 180.0000771 15.1670000 2
19824 19826 19828 19830 1 180.0000771 15.1670000 2
19827 19826 19828 19829 1 180.0000771 15.1670000 2
19827 19826 19828 19830 1 180.0000771 15.1670000 2
19824 19828 19826 19827 4 180.0000771 4.6024000 2
19826 19828 19830 19831 1 180.0000771 15.1670000 2
19826 19828 19830 19832 1 180.0000771 15.1670000 2
19829 19828 19830 19831 1 180.0000771 15.1670000 2
19829 19828 19830 19832 1 180.0000771 15.1670000 2
19826 19830 19828 19829 4 180.0000771 4.6024000 2
19823 19830 19832 19833 4 180.0000771 4.6024000 2
19828 19830 19832 19833 1 180.0000771 15.1670000 2
19831 19830 19832 19833 1 180.0000771 15.1670000 2
19823 19832 19830 19828 1 180.0000771 15.1670000 2
19823 19832 19830 19831 1 180.0000771 15.1670000 2
19828 19832 19830 19831 4 180.0000771 4.6024000 2
19834 19835 19836 19837 1 180.0000771 15.1670000 2
19834 19835 19836 19838 1 180.0000771 15.1670000 2
19837 19835 19836 19838 4 180.0000771 4.6024000 2
19834 19835 19844 19836 4 180.0000771 4.6024000 2
19834 19835 19844 19842 1 180.0000771 15.1670000 2
19834 19835 19844 19845 1 180.0000771 15.1670000 2
19836 19835 19844 19842 1 180.0000771 15.1670000 2
19836 19835 19844 19845 1 180.0000771 15.1670000 2
19837 19836 19835 19844 1 180.0000771 15.1670000 2
19838 19836 19835 19844 1 180.0000771 15.1670000 2
19835 19836 19838 19839 1 180.0000771 15.1670000 2
19835 19836 19838 19840 1 180.0000771 15.1670000 2
19837 19836 19838 19839 1 180.0000771 15.1670000 2
19837 19836 19838 19840 1 180.0000771 15.1670000 2
19836 19838 19840 19841 1 180.0000771 15.1670000 2
19836 19838 19840 19842 1 180.0000771 15.1670000 2
19839 19838 19840 19841 1 180.0000771 15.1670000 2
19839 19838 19840 19842 1 180.0000771 15.1670000 2
19836 19840 19838 19839 4 180.0000771 4.6024000 2
19838 19840 19842 19843 1 180.0000771 15.1670000 2
19838 19840 19842 19844 1 180.0000771 15.1670000 2
19841 19840 19842 19843 1 180.0000771 15.1670000 2
19841 19840 19842 19844 1 180.0000771 15.1670000 2
19838 19842 19840 19841 4 180.0000771 4.6024000 2
19835 19842 19844 19845 4 180.0000771 4.6024000 2
19840 19842 19844 19845 1 180.0000771 15.1670000 2
19843 19842 19844 19845 1 180.0000771 15.1670000 2
19835 19844 19842 19840 1 180.0000771 15.1670000 2
19835 19844 19842 19843 1 180.0000771 15.1670000 2
19840 19844 19842 19843 4 180.0000771 4.6024000 2
19846 19847 19848 19849 1 180.0000771 15.1670000 2
19846 19847 19848 19850 1 180.0000771 15.1670000 2
19849 19847 19848 19850 4 180.0000771 4.6024000 2
19846 19847 19856 19848 4 180.0000771 4.6024000 2
19846 19847 19856 19854 1 180.0000771 15.1670000 2
19846 19847 19856 19857 1 180.0000771 15.1670000 2
19848 19847 19856 19854 1 180.0000771 15.1670000 2
19848 19847 19856 19857 1 180.0000771 15.1670000 2
19849 19848 19847 19856 1 180.0000771 15.1670000 2
19850 19848 19847 19856 1 180.0000771 15.1670000 2
19847 19848 19850 19851 1 180.0000771 15.1670000 2
19847 19848 19850 19852 1 180.0000771 15.1670000 2
19849 19848 19850 19851 1 180.0000771 15.1670000 2
19849 19848 19850 19852 1 180.0000771 15.1670000 2
19848 19850 19852 19853 1 180.0000771 15.1670000 2
19848 19850 19852 19854 1 180.0000771 15.1670000 2
19851 19850 19852 19853 1 180.0000771 15.1670000 2
19851 19850 19852 19854 1 180.0000771 15.1670000 2
19848 19852 19850 19851 4 180.0000771 4.6024000 2
19850 19852 19854 19855 1 180.0000771 15.1670000 2
19850 19852 19854 19856 1 180.0000771 15.1670000 2
19853 19852 19854 19855 1 180.0000771 15.1670000 2
19853 19852 19854 19856 1 180.0000771 15.1670000 2
19850 19854 19852 19853 4 180.0000771 4.6024000 2
19847 19854 19856 19857 4 180.0000771 4.6024000 2
19852 19854 19856 19857 1 180.0000771 15.1670000 2
19855 19854 19856 19857 1 180.0000771 15.1670000 2
19847 19856 19854 19852 1 180.0000771 15.1670000 2
19847 19856 19854 19855 1 180.0000771 15.1670000 2
19852 19856 19854 19855 4 180.0000771 4.6024000 2
19858 19859 19860 19861 1 180.0000771 15.1670000 2
19858 19859 19860 19862 1 180.0000771 15.1670000 2
19861 19859 19860 19862 4 180.0000771 4.6024000 2
19858 19859 19868 19860 4 180.0000771 4.6024000 2
19858 19859 19868 19866 1 180.0000771 15.1670000 2
19858 19859 19868 19869 1 180.0000771 15.1670000 2
19860 19859 19868 19866 1 180.0000771 15.1670000 2
19860 19859 19868 19869 1 180.0000771 15.1670000 2
19861 19860 19859 19868 1 180.0000771 15.1670000 2
19862 19860 19859 19868 1 180.0000771 15.1670000 2
19859 19860 19862 19863 1 180.0000771 15.1670000 2
19859 19860 19862 19864 1 180.0000771 15.1670000 2
19861 19860 19862 19863 1 180.0000771 15.1670000 2
19861 19860 19862 19864 1 180.0000771 15.1670000 2
19860 19862 19864 19865 1 180.0000771 15.1670000 2
19860 19862 19864 19866 1 180.0000771 15.1670000 2
19863 19862 19864 19865 1 180.0000771 15.1670000 2
19863 19862 19864 19866 1 180.0000771 15.1670000 2
19860 19864 19862 19863 4 180.0000771 4.6024000 2
19862 19864 19866 19867 1 180.0000771 15.1670000 2
19862 19864 19866 19868 1 180.0000771 15.1670000 2
19865 19864 19866 19867 1 180.0000771 15.1670000 2
19865 19864 19866 19868 1 180.0000771 15.1670000 2
19862 19866 19864 19865 4 180.0000771 4.6024000 2
19859 19866 19868 19869 4 180.0000771 4.6024000 2
19864 19866 19868 19869 1 180.0000771 15.1670000 2
19867 19866 19868 19869 1 180.0000771 15.1670000 2
19859 19868 19866 19864 1 180.0000771 15.1670000 2
19859 19868 19866 19867 1 180.0000771 15.1670000 2
19864 19868 19866 19867 4 180.0000771 4.6024000 2
19870 19871 19872 19873 1 180.0000771 15.1670000 2
19870 19871 19872 19874 1 180.0000771 15.1670000 2
19873 19871 19872 19874 4 180.0000771 4.6024000 2
19870 19871 19880 19872 4 180.0000771 4.6024000 2
19870 19871 19880 19878 1 180.0000771 15.1670000 2
19870 19871 19880 19881 1 180.0000771 15.1670000 2
19872 19871 19880 19878 1 180.0000771 15.1670000 2
19872 19871 19880 19881 1 180.0000771 15.1670000 2
19873 19872 19871 19880 1 180.0000771 15.1670000 2
19874 19872 19871 19880 1 180.0000771 15.1670000 2
19871 19872 19874 19875 1 180.0000771 15.1670000 2
19871 19872 19874 19876 1 180.0000771 15.1670000 2
19873 19872 19874 19875 1 180.0000771 15.1670000 2
19873 19872 19874 19876 1 180.0000771 15.1670000 2
19872 19874 19876 19877 1 180.0000771 15.1670000 2
19872 19874 19876 19878 1 180.0000771 15.1670000 2
19875 19874 19876 19877 1 180.0000771 15.1670000 2
19875 19874 19876 19878 1 180.0000771 15.1670000 2
19872 19876 19874 19875 4 180.0000771 4.6024000 2
19874 19876 19878 19879 1 180.0000771 15.1670000 2
19874 19876 19878 19880 1 180.0000771 15.1670000 2
19877 19876 19878 19879 1 180.0000771 15.1670000 2
19877 19876 19878 19880 1 180.0000771 15.1670000 2
19874 19878 19876 19877 4 180.0000771 4.6024000 2
19871 19878 19880 19881 4 180.0000771 4.6024000 2
19876 19878 19880 19881 1 180.0000771 15.1670000 2
19879 19878 19880 19881 1 180.0000771 15.1670000 2
19871 19880 19878 19876 1 180.0000771 15.1670000 2
19871 19880 19878 19879 1 180.0000771 15.1670000 2
19876 19880 19878 19879 4 180.0000771 4.6024000 2
19882 19883 19884 19885 1 180.0000771 15.1670000 2
19882 19883 19884 19886 1 180.0000771 15.1670000 2
19885 19883 19884 19886 4 180.0000771 4.6024000 2
19882 19883 19892 19884 4 180.0000771 4.6024000 2
19882 19883 19892 19890 1 180.0000771 15.1670000 2
19882 19883 19892 19893 1 180.0000771 15.1670000 2
19884 19883 19892 19890 1 180.0000771 15.1670000 2
19884 19883 19892 19893 1 180.0000771 15.1670000 2
19885 19884 19883 19892 1 180.0000771 15.1670000 2
19886 19884 19883 19892 1 180.0000771 15.1670000 2
19883 19884 19886 19887 1 180.0000771 15.1670000 2
19883 19884 19886 19888 1 180.0000771 15.1670000 2
19885 19884 19886 19887 1 180.0000771 15.1670000 2
19885 19884 19886 19888 1 180.0000771 15.1670000 2
19884 19886 19888 19889 1 180.0000771 15.1670000 2
19884 19886 19888 19890 1 180.0000771 15.1670000 2
19887 19886 19888 19889 1 180.0000771 15.1670000 2
19887 19886 19888 19890 1 180.0000771 15.1670000 2
19884 19888 19886 19887 4 180.0000771 4.6024000 2
19886 19888 19890 19891 1 180.0000771 15.1670000 2
19886 19888 19890 19892 1 180.0000771 15.1670000 2
19889 19888 19890 19891 1 180.0000771 15.1670000 2
19889 19888 19890 19892 1 180.0000771 15.1670000 2
19886 19890 19888 19889 4 180.0000771 4.6024000 2
19883 19890 19892 19893 4 180.0000771 4.6024000 2
19888 19890 19892 19893 1 180.0000771 15.1670000 2
19891 19890 19892 19893 1 180.0000771 15.1670000 2
19883 19892 19890 19888 1 180.0000771 15.1670000 2
19883 19892 19890 19891 1 180.0000771 15.1670000 2
19888 19892 19890 19891 4 180.0000771 4.6024000 2
19894 19895 19896 19897 1 180.0000771 15.1670000 2
19894 19895 19896 19898 1 180.0000771 15.1670000 2
19897 19895 19896 19898 4 180.0000771 4.6024000 2
19894 19895 19904 19896 4 180.0000771 4.6024000 2
19894 19895 19904 19902 1 180.0000771 15.1670000 2
19894 19895 19904 19905 1 180.0000771 15.1670000 2
19896 19895 19904 19902 1 180.0000771 15.1670000 2
19896 19895 19904 19905 1 180.0000771 15.1670000 2
19897 19896 19895 19904 1 180.0000771 15.1670000 2
19898 19896 19895 19904 1 180.0000771 15.1670000 2
19895 19896 19898 19899 1 180.0000771 15.1670000 2
19895 19896 19898 19900 1 180.0000771 15.1670000 2
19897 19896 19898 19899 1 180.0000771 15.1670000 2
19897 19896 19898 19900 1 180.0000771 15.1670000 2
19896 19898 19900 19901 1 180.0000771 15.1670000 2
19896 19898 19900 19902 1 180.0000771 15.1670000 2
19899 19898 19900 19901 1 180.0000771 15.1670000 2
19899 19898 19900 19902 1 180.0000771 15.1670000 2
19896 19900 19898 19899 4 180.0000771 4.6024000 2
19898 19900 19902 19903 1 180.0000771 15.1670000 2
19898 19900 19902 19904 1 180.0000771 15.1670000 2
19901 19900 19902 19903 1 180.0000771 15.1670000 2
19901 19900 19902 19904 1 180.0000771 15.1670000 2
19898 19902 19900 19901 4 180.0000771 4.6024000 2
19895 19902 19904 19905 4 180.0000771 4.6024000 2
19900 19902 19904 19905 1 180.0000771 15.1670000 2
19903 19902 19904 19905 1 180.0000771 15.1670000 2
19895 19904 19902 19900 1 180.0000771 15.1670000 2
19895 19904 19902 19903 1 180.0000771 15.1670000 2
19900 19904 19902 19903 4 180.0000771 4.6024000 2
19906 19907 19908 19909 1 180.0000771 15.1670000 2
19906 19907 19908 19910 1 180.0000771 15.1670000 2
19909 19907 19908 19910 4 180.0000771 4.6024000 2
19906 19907 19916 19908 4 180.0000771 4.6024000 2
19906 19907 19916 19914 1 180.0000771 15.1670000 2
19906 19907 19916 19917 1 180.0000771 15.1670000 2
19908 19907 19916 19914 1 180.0000771 15.1670000 2
19908 19907 19916 19917 1 180.0000771 15.1670000 2
19909 19908 19907 19916 1 180.0000771 15.1670000 2
19910 19908 19907 19916 1 180.0000771 15.1670000 2
19907 19908 19910 19911 1 180.0000771 15.1670000 2
19907 19908 19910 19912 1 180.0000771 15.1670000 2
19909 19908 19910 19911 1 180.0000771 15.1670000 2
19909 19908 19910 19912 1 180.0000771 15.1670000 2
19908 19910 19912 19913 1 180.0000771 15.1670000 2
19908 19910 19912 19914 1 180.0000771 15.1670000 2
19911 19910 19912 19913 1 180.0000771 15.1670000 2
19911 19910 19912 19914 1 180.0000771 15.1670000 2
19908 19912 19910 19911 4 180.0000771 4.6024000 2
19910 19912 19914 19915 1 180.0000771 15.1670000 2
19910 19912 19914 19916 1 180.0000771 15.1670000 2
19913 19912 19914 19915 1 180.0000771 15.1670000 2
19913 19912 19914 19916 1 180.0000771 15.1670000 2
19910 19914 19912 19913 4 180.0000771 4.6024000 2
19907 19914 19916 19917 4 180.0000771 4.6024000 2
19912 19914 19916 19917 1 180.0000771 15.1670000 2
19915 19914 19916 19917 1 180.0000771 15.1670000 2
19907 19916 19914 19912 1 180.0000771 15.1670000 2
19907 19916 19914 19915 1 180.0000771 15.1670000 2
19912 19916 19914 19915 4 180.0000771 4.6024000 2
19918 19919 19920 19921 1 180.0000771 15.1670000 2
19918 19919 19920 19922 1 180.0000771 15.1670000 2
19921 19919 19920 19922 4 180.0000771 4.6024000 2
19918 19919 19928 19920 4 180.0000771 4.6024000 2
19918 19919 19928 19926 1 180.0000771 15.1670000 2
19918 19919 19928 19929 1 180.0000771 15.1670000 2
19920 19919 19928 19926 1 180.0000771 15.1670000 2
19920 19919 19928 19929 1 180.0000771 15.1670000 2
19921 19920 19919 19928 1 180.0000771 15.1670000 2
19922 19920 19919 19928 1 180.0000771 15.1670000 2
19919 19920 19922 19923 1 180.0000771 15.1670000 2
19919 19920 19922 19924 1 180.0000771 15.1670000 2
19921 19920 19922 19923 1 180.0000771 15.1670000 2
19921 19920 19922 19924 1 180.0000771 15.1670000 2
19920 19922 19924 19925 1 180.0000771 15.1670000 2
19920 19922 19924 19926 1 180.0000771 15.1670000 2
19923 19922 19924 19925 1 180.0000771 15.1670000 2
19923 19922 19924 19926 1 180.0000771 15.1670000 2
19920 19924 19922 19923 4 180.0000771 4.6024000 2
19922 19924 19926 19927 1 180.0000771 15.1670000 2
19922 19924 19926 19928 1 180.0000771 15.1670000 2
19925 19924 19926 19927 1 180.0000771 15.1670000 2
19925 19924 19926 19928 1 180.0000771 15.1670000 2
19922 19926 19924 19925 4 180.0000771 4.6024000 2
19919 19926 19928 19929 4 180.0000771 4.6024000 2
19924 19926 19928 19929 1 180.0000771 15.1670000 2
19927 19926 19928 19929 1 180.0000771 15.1670000 2
19919 19928 19926 19924 1 180.0000771 15.1670000 2
19919 19928 19926 19927 1 180.0000771 15.1670000 2
19924 19928 19926 19927 4 180.0000771 4.6024000 2
19930 19931 19932 19933 1 180.0000771 15.1670000 2
19930 19931 19932 19934 1 180.0000771 15.1670000 2
19933 19931 19932 19934 4 180.0000771 4.6024000 2
19930 19931 19940 19932 4 180.0000771 4.6024000 2
19930 19931 19940 19938 1 180.0000771 15.1670000 2
19930 19931 19940 19941 1 180.0000771 15.1670000 2
19932 19931 19940 19938 1 180.0000771 15.1670000 2
19932 19931 19940 19941 1 180.0000771 15.1670000 2
19933 19932 19931 19940 1 180.0000771 15.1670000 2
19934 19932 19931 19940 1 180.0000771 15.1670000 2
19931 19932 19934 19935 1 180.0000771 15.1670000 2
19931 19932 19934 19936 1 180.0000771 15.1670000 2
19933 19932 19934 19935 1 180.0000771 15.1670000 2
19933 19932 19934 19936 1 180.0000771 15.1670000 2
19932 19934 19936 19937 1 180.0000771 15.1670000 2
19932 19934 19936 19938 1 180.0000771 15.1670000 2
19935 19934 19936 19937 1 180.0000771 15.1670000 2
19935 19934 19936 19938 1 180.0000771 15.1670000 2
19932 19936 19934 19935 4 180.0000771 4.6024000 2
19934 19936 19938 19939 1 180.0000771 15.1670000 2
19934 19936 19938 19940 1 180.0000771 15.1670000 2
19937 19936 19938 19939 1 180.0000771 15.1670000 2
19937 19936 19938 19940 1 180.0000771 15.1670000 2
19934 19938 19936 19937 4 180.0000771 4.6024000 2
19931 19938 19940 19941 4 180.0000771 4.6024000 2
19936 19938 19940 19941 1 180.0000771 15.1670000 2
19939 19938 19940 19941 1 180.0000771 15.1670000 2
19931 19940 19938 19936 1 180.0000771 15.1670000 2
19931 19940 19938 19939 1 180.0000771 15.1670000 2
19936 19940 19938 19939 4 180.0000771 4.6024000 2
19942 19943 19944 19945 1 180.0000771 15.1670000 2
19942 19943 19944 19946 1 180.0000771 15.1670000 2
19945 19943 19944 19946 4 180.0000771 4.6024000 2
19942 19943 19952 19944 4 180.0000771 4.6024000 2
19942 19943 19952 19950 1 180.0000771 15.1670000 2
19942 19943 19952 19953 1 180.0000771 15.1670000 2
19944 19943 19952 19950 1 180.0000771 15.1670000 2
19944 19943 19952 19953 1 180.0000771 15.1670000 2
19945 19944 19943 19952 1 180.0000771 15.1670000 2
19946 19944 19943 19952 1 180.0000771 15.1670000 2
19943 19944 19946 19947 1 180.0000771 15.1670000 2
19943 19944 19946 19948 1 180.0000771 15.1670000 2
19945 19944 19946 19947 1 180.0000771 15.1670000 2
19945 19944 19946 19948 1 180.0000771 15.1670000 2
19944 19946 19948 19949 1 180.0000771 15.1670000 2
19944 19946 19948 19950 1 180.0000771 15.1670000 2
19947 19946 19948 19949 1 180.0000771 15.1670000 2
19947 19946 19948 19950 1 180.0000771 15.1670000 2
19944 19948 19946 19947 4 180.0000771 4.6024000 2
19946 19948 19950 19951 1 180.0000771 15.1670000 2
19946 19948 19950 19952 1 180.0000771 15.1670000 2
19949 19948 19950 19951 1 180.0000771 15.1670000 2
19949 19948 19950 19952 1 180.0000771 15.1670000 2
19946 19950 19948 19949 4 180.0000771 4.6024000 2
19943 19950 19952 19953 4 180.0000771 4.6024000 2
19948 19950 19952 19953 1 180.0000771 15.1670000 2
19951 19950 19952 19953 1 180.0000771 15.1670000 2
19943 19952 19950 19948 1 180.0000771 15.1670000 2
19943 19952 19950 19951 1 180.0000771 15.1670000 2
19948 19952 19950 19951 4 180.0000771 4.6024000 2
19954 19955 19956 19957 1 180.0000771 15.1670000 2
19954 19955 19956 19958 1 180.0000771 15.1670000 2
19957 19955 19956 19958 4 180.0000771 4.6024000 2
19954 19955 19964 19956 4 180.0000771 4.6024000 2
19954 19955 19964 19962 1 180.0000771 15.1670000 2
19954 19955 19964 19965 1 180.0000771 15.1670000 2
19956 19955 19964 19962 1 180.0000771 15.1670000 2
19956 19955 19964 19965 1 180.0000771 15.1670000 2
19957 19956 19955 19964 1 180.0000771 15.1670000 2
19958 19956 19955 19964 1 180.0000771 15.1670000 2
19955 19956 19958 19959 1 180.0000771 15.1670000 2
19955 19956 19958 19960 1 180.0000771 15.1670000 2
19957 19956 19958 19959 1 180.0000771 15.1670000 2
19957 19956 19958 19960 1 180.0000771 15.1670000 2
19956 19958 19960 19961 1 180.0000771 15.1670000 2
19956 19958 19960 19962 1 180.0000771 15.1670000 2
19959 19958 19960 19961 1 180.0000771 15.1670000 2
19959 19958 19960 19962 1 180.0000771 15.1670000 2
19956 19960 19958 19959 4 180.0000771 4.6024000 2
19958 19960 19962 19963 1 180.0000771 15.1670000 2
19958 19960 19962 19964 1 180.0000771 15.1670000 2
19961 19960 19962 19963 1 180.0000771 15.1670000 2
19961 19960 19962 19964 1 180.0000771 15.1670000 2
19958 19962 19960 19961 4 180.0000771 4.6024000 2
19955 19962 19964 19965 4 180.0000771 4.6024000 2
19960 19962 19964 19965 1 180.0000771 15.1670000 2
19963 19962 19964 19965 1 180.0000771 15.1670000 2
19955 19964 19962 19960 1 180.0000771 15.1670000 2
19955 19964 19962 19963 1 180.0000771 15.1670000 2
19960 19964 19962 19963 4 180.0000771 4.6024000 2
19966 19967 19968 19969 1 180.0000771 15.1670000 2
19966 19967 19968 19970 1 180.0000771 15.1670000 2
19969 19967 19968 19970 4 180.0000771 4.6024000 2
19966 19967 19976 19968 4 180.0000771 4.6024000 2
19966 19967 19976 19974 1 180.0000771 15.1670000 2
19966 19967 19976 19977 1 180.0000771 15.1670000 2
19968 19967 19976 19974 1 180.0000771 15.1670000 2
19968 19967 19976 19977 1 180.0000771 15.1670000 2
19969 19968 19967 19976 1 180.0000771 15.1670000 2
19970 19968 19967 19976 1 180.0000771 15.1670000 2
19967 19968 19970 19971 1 180.0000771 15.1670000 2
19967 19968 19970 19972 1 180.0000771 15.1670000 2
19969 19968 19970 19971 1 180.0000771 15.1670000 2
19969 19968 19970 19972 1 180.0000771 15.1670000 2
19968 19970 19972 19973 1 180.0000771 15.1670000 2
19968 19970 19972 19974 1 180.0000771 15.1670000 2
19971 19970 19972 19973 1 180.0000771 15.1670000 2
19971 19970 19972 19974 1 180.0000771 15.1670000 2
19968 19972 19970 19971 4 180.0000771 4.6024000 2
19970 19972 19974 19975 1 180.0000771 15.1670000 2
19970 19972 19974 19976 1 180.0000771 15.1670000 2
19973 19972 19974 19975 1 180.0000771 15.1670000 2
19973 19972 19974 19976 1 180.0000771 15.1670000 2
19970 19974 19972 19973 4 180.0000771 4.6024000 2
19967 19974 19976 19977 4 180.0000771 4.6024000 2
19972 19974 19976 19977 1 180.0000771 15.1670000 2
19975 19974 19976 19977 1 180.0000771 15.1670000 2
19967 19976 19974 19972 1 180.0000771 15.1670000 2
19967 19976 19974 19975 1 180.0000771 15.1670000 2
19972 19976 19974 19975 4 180.0000771 4.6024000 2
19978 19979 19980 19981 1 180.0000771 15.1670000 2
19978 19979 19980 19982 1 180.0000771 15.1670000 2
19981 19979 19980 19982 4 180.0000771 4.6024000 2
19978 19979 19988 19980 4 180.0000771 4.6024000 2
19978 19979 19988 19986 1 180.0000771 15.1670000 2
19978 19979 19988 19989 1 180.0000771 15.1670000 2
19980 19979 19988 19986 1 180.0000771 15.1670000 2
19980 19979 19988 19989 1 180.0000771 15.1670000 2
19981 19980 19979 19988 1 180.0000771 15.1670000 2
19982 19980 19979 19988 1 180.0000771 15.1670000 2
19979 19980 19982 19983 1 180.0000771 15.1670000 2
19979 19980 19982 19984 1 180.0000771 15.1670000 2
19981 19980 19982 19983 1 180.0000771 15.1670000 2
19981 19980 19982 19984 1 180.0000771 15.1670000 2
19980 19982 19984 19985 1 180.0000771 15.1670000 2
19980 19982 19984 19986 1 180.0000771 15.1670000 2
19983 19982 19984 19985 1 180.0000771 15.1670000 2
19983 19982 19984 19986 1 180.0000771 15.1670000 2
19980 19984 19982 19983 4 180.0000771 4.6024000 2
19982 19984 19986 19987 1 180.0000771 15.1670000 2
19982 19984 19986 19988 1 180.0000771 15.1670000 2
19985 19984 19986 19987 1 180.0000771 15.1670000 2
19985 19984 19986 19988 1 180.0000771 15.1670000 2
19982 19986 19984 19985 4 180.0000771 4.6024000 2
19979 19986 19988 19989 4 180.0000771 4.6024000 2
19984 19986 19988 19989 1 180.0000771 15.1670000 2
19987 19986 19988 19989 1 180.0000771 15.1670000 2
19979 19988 19986 19984 1 180.0000771 15.1670000 2
19979 19988 19986 19987 1 180.0000771 15.1670000 2
19984 19988 19986 19987 4 180.0000771 4.6024000 2
19990 19991 19992 19993 1 180.0000771 15.1670000 2
19990 19991 19992 19994 1 180.0000771 15.1670000 2
19993 19991 19992 19994 4 180.0000771 4.6024000 2
19990 19991 20000 19992 4 180.0000771 4.6024000 2
19990 19991 20000 19998 1 180.0000771 15.1670000 2
19990 19991 20000 20001 1 180.0000771 15.1670000 2
19992 19991 20000 19998 1 180.0000771 15.1670000 2
19992 19991 20000 20001 1 180.0000771 15.1670000 2
19993 19992 19991 20000 1 180.0000771 15.1670000 2
19994 19992 19991 20000 1 180.0000771 15.1670000 2
19991 19992 19994 19995 1 180.0000771 15.1670000 2
19991 19992 19994 19996 1 180.0000771 15.1670000 2
19993 19992 19994 19995 1 180.0000771 15.1670000 2
19993 19992 19994 19996 1 180.0000771 15.1670000 2
19992 19994 19996 19997 1 180.0000771 15.1670000 2
19992 19994 19996 19998 1 180.0000771 15.1670000 2
19995 19994 19996 19997 1 180.0000771 15.1670000 2
19995 19994 19996 19998 1 180.0000771 15.1670000 2
19992 19996 19994 19995 4 180.0000771 4.6024000 2
19994 19996 19998 19999 1 180.0000771 15.1670000 2
19994 19996 19998 20000 1 180.0000771 15.1670000 2
19997 19996 19998 19999 1 180.0000771 15.1670000 2
19997 19996 19998 20000 1 180.0000771 15.1670000 2
19994 19998 19996 19997 4 180.0000771 4.6024000 2
19991 19998 20000 20001 4 180.0000771 4.6024000 2
19996 19998 20000 20001 1 180.0000771 15.1670000 2
19999 19998 20000 20001 1 180.0000771 15.1670000 2
19991 20000 19998 19996 1 180.0000771 15.1670000 2
19991 20000 19998 19999 1 180.0000771 15.1670000 2
19996 20000 19998 19999 4 180.0000771 4.6024000 2
20002 20003 20004 20005 1 180.0000771 15.1670000 2
20002 20003 20004 20006 1 180.0000771 15.1670000 2
20005 20003 20004 20006 4 180.0000771 4.6024000 2
20002 20003 20012 20004 4 180.0000771 4.6024000 2
20002 20003 20012 20010 1 180.0000771 15.1670000 2
20002 20003 20012 20013 1 180.0000771 15.1670000 2
20004 20003 20012 20010 1 180.0000771 15.1670000 2
20004 20003 20012 20013 1 180.0000771 15.1670000 2
20005 20004 20003 20012 1 180.0000771 15.1670000 2
20006 20004 20003 20012 1 180.0000771 15.1670000 2
20003 20004 20006 20007 1 180.0000771 15.1670000 2
20003 20004 20006 20008 1 180.0000771 15.1670000 2
20005 20004 20006 20007 1 180.0000771 15.1670000 2
20005 20004 20006 20008 1 180.0000771 15.1670000 2
20004 20006 20008 20009 1 180.0000771 15.1670000 2
20004 20006 20008 20010 1 180.0000771 15.1670000 2
20007 20006 20008 20009 1 180.0000771 15.1670000 2
20007 20006 20008 20010 1 180.0000771 15.1670000 2
20004 20008 20006 20007 4 180.0000771 4.6024000 2
20006 20008 20010 20011 1 180.0000771 15.1670000 2
20006 20008 20010 20012 1 180.0000771 15.1670000 2
20009 20008 20010 20011 1 180.0000771 15.1670000 2
20009 20008 20010 20012 1 180.0000771 15.1670000 2
20006 20010 20008 20009 4 180.0000771 4.6024000 2
20003 20010 20012 20013 4 180.0000771 4.6024000 2
20008 20010 20012 20013 1 180.0000771 15.1670000 2
20011 20010 20012 20013 1 180.0000771 15.1670000 2
20003 20012 20010 20008 1 180.0000771 15.1670000 2
20003 20012 20010 20011 1 180.0000771 15.1670000 2
20008 20012 20010 20011 4 180.0000771 4.6024000 2
20014 20015 20016 20017 1 180.0000771 15.1670000 2
20014 20015 20016 20018 1 180.0000771 15.1670000 2
20017 20015 20016 20018 4 180.0000771 4.6024000 2
20014 20015 20024 20016 4 180.0000771 4.6024000 2
20014 20015 20024 20022 1 180.0000771 15.1670000 2
20014 20015 20024 20025 1 180.0000771 15.1670000 2
20016 20015 20024 20022 1 180.0000771 15.1670000 2
20016 20015 20024 20025 1 180.0000771 15.1670000 2
20017 20016 20015 20024 1 180.0000771 15.1670000 2
20018 20016 20015 20024 1 180.0000771 15.1670000 2
20015 20016 20018 20019 1 180.0000771 15.1670000 2
20015 20016 20018 20020 1 180.0000771 15.1670000 2
20017 20016 20018 20019 1 180.0000771 15.1670000 2
20017 20016 20018 20020 1 180.0000771 15.1670000 2
20016 20018 20020 20021 1 180.0000771 15.1670000 2
20016 20018 20020 20022 1 180.0000771 15.1670000 2
20019 20018 20020 20021 1 180.0000771 15.1670000 2
20019 20018 20020 20022 1 180.0000771 15.1670000 2
20016 20020 20018 20019 4 180.0000771 4.6024000 2
20018 20020 20022 20023 1 180.0000771 15.1670000 2
20018 20020 20022 20024 1 180.0000771 15.1670000 2
20021 20020 20022 20023 1 180.0000771 15.1670000 2
20021 20020 20022 20024 1 180.0000771 15.1670000 2
20018 20022 20020 20021 4 180.0000771 4.6024000 2
20015 20022 20024 20025 4 180.0000771 4.6024000 2
20020 20022 20024 20025 1 180.0000771 15.1670000 2
20023 20022 20024 20025 1 180.0000771 15.1670000 2
20015 20024 20022 20020 1 180.0000771 15.1670000 2
20015 20024 20022 20023 1 180.0000771 15.1670000 2
20020 20024 20022 20023 4 180.0000771 4.6024000 2
20026 20027 20028 20029 1 180.0000771 15.1670000 2
20026 20027 20028 20030 1 180.0000771 15.1670000 2
20029 20027 20028 20030 4 180.0000771 4.6024000 2
20026 20027 20036 20028 4 180.0000771 4.6024000 2
20026 20027 20036 20034 1 180.0000771 15.1670000 2
20026 20027 20036 20037 1 180.0000771 15.1670000 2
20028 20027 20036 20034 1 180.0000771 15.1670000 2
20028 20027 20036 20037 1 180.0000771 15.1670000 2
20029 20028 20027 20036 1 180.0000771 15.1670000 2
20030 20028 20027 20036 1 180.0000771 15.1670000 2
20027 20028 20030 20031 1 180.0000771 15.1670000 2
20027 20028 20030 20032 1 180.0000771 15.1670000 2
20029 20028 20030 20031 1 180.0000771 15.1670000 2
20029 20028 20030 20032 1 180.0000771 15.1670000 2
20028 20030 20032 20033 1 180.0000771 15.1670000 2
20028 20030 20032 20034 1 180.0000771 15.1670000 2
20031 20030 20032 20033 1 180.0000771 15.1670000 2
20031 20030 20032 20034 1 180.0000771 15.1670000 2
20028 20032 20030 20031 4 180.0000771 4.6024000 2
20030 20032 20034 20035 1 180.0000771 15.1670000 2
20030 20032 20034 20036 1 180.0000771 15.1670000 2
20033 20032 20034 20035 1 180.0000771 15.1670000 2
20033 20032 20034 20036 1 180.0000771 15.1670000 2
20030 20034 20032 20033 4 180.0000771 4.6024000 2
20027 20034 20036 20037 4 180.0000771 4.6024000 2
20032 20034 20036 20037 1 180.0000771 15.1670000 2
20035 20034 20036 20037 1 180.0000771 15.1670000 2
20027 20036 20034 20032 1 180.0000771 15.1670000 2
20027 20036 20034 20035 1 180.0000771 15.1670000 2
20032 20036 20034 20035 4 180.0000771 4.6024000 2
20038 20039 20040 20041 1 180.0000771 15.1670000 2
20038 20039 20040 20042 1 180.0000771 15.1670000 2
20041 20039 20040 20042 4 180.0000771 4.6024000 2
20038 20039 20048 20040 4 180.0000771 4.6024000 2
20038 20039 20048 20046 1 180.0000771 15.1670000 2
20038 20039 20048 20049 1 180.0000771 15.1670000 2
20040 20039 20048 20046 1 180.0000771 15.1670000 2
20040 20039 20048 20049 1 180.0000771 15.1670000 2
20041 20040 20039 20048 1 180.0000771 15.1670000 2
20042 20040 20039 20048 1 180.0000771 15.1670000 2
20039 20040 20042 20043 1 180.0000771 15.1670000 2
20039 20040 20042 20044 1 180.0000771 15.1670000 2
20041 20040 20042 20043 1 180.0000771 15.1670000 2
20041 20040 20042 20044 1 180.0000771 15.1670000 2
20040 20042 20044 20045 1 180.0000771 15.1670000 2
20040 20042 20044 20046 1 180.0000771 15.1670000 2
20043 20042 20044 20045 1 180.0000771 15.1670000 2
20043 20042 20044 20046 1 180.0000771 15.1670000 2
20040 20044 20042 20043 4 180.0000771 4.6024000 2
20042 20044 20046 20047 1 180.0000771 15.1670000 2
20042 20044 20046 20048 1 180.0000771 15.1670000 2
20045 20044 20046 20047 1 180.0000771 15.1670000 2
20045 20044 20046 20048 1 180.0000771 15.1670000 2
20042 20046 20044 20045 4 180.0000771 4.6024000 2
20039 20046 20048 20049 4 180.0000771 4.6024000 2
20044 20046 20048 20049 1 180.0000771 15.1670000 2
20047 20046 20048 20049 1 180.0000771 15.1670000 2
20039 20048 20046 20044 1 180.0000771 15.1670000 2
20039 20048 20046 20047 1 180.0000771 15.1670000 2
20044 20048 20046 20047 4 180.0000771 4.6024000 2
20050 20051 20052 20053 1 180.0000771 15.1670000 2
20050 20051 20052 20054 1 180.0000771 15.1670000 2
20053 20051 20052 20054 4 180.0000771 4.6024000 2
20050 20051 20060 20052 4 180.0000771 4.6024000 2
20050 20051 20060 20058 1 180.0000771 15.1670000 2
20050 20051 20060 20061 1 180.0000771 15.1670000 2
20052 20051 20060 20058 1 180.0000771 15.1670000 2
20052 20051 20060 20061 1 180.0000771 15.1670000 2
20053 20052 20051 20060 1 180.0000771 15.1670000 2
20054 20052 20051 20060 1 180.0000771 15.1670000 2
20051 20052 20054 20055 1 180.0000771 15.1670000 2
20051 20052 20054 20056 1 180.0000771 15.1670000 2
20053 20052 20054 20055 1 180.0000771 15.1670000 2
20053 20052 20054 20056 1 180.0000771 15.1670000 2
20052 20054 20056 20057 1 180.0000771 15.1670000 2
20052 20054 20056 20058 1 180.0000771 15.1670000 2
20055 20054 20056 20057 1 180.0000771 15.1670000 2
20055 20054 20056 20058 1 180.0000771 15.1670000 2
20052 20056 20054 20055 4 180.0000771 4.6024000 2
20054 20056 20058 20059 1 180.0000771 15.1670000 2
20054 20056 20058 20060 1 180.0000771 15.1670000 2
20057 20056 20058 20059 1 180.0000771 15.1670000 2
20057 20056 20058 20060 1 180.0000771 15.1670000 2
20054 20058 20056 20057 4 180.0000771 4.6024000 2
20051 20058 20060 20061 4 180.0000771 4.6024000 2
20056 20058 20060 20061 1 180.0000771 15.1670000 2
20059 20058 20060 20061 1 180.0000771 15.1670000 2
20051 20060 20058 20056 1 180.0000771 15.1670000 2
20051 20060 20058 20059 1 180.0000771 15.1670000 2
20056 20060 20058 20059 4 180.0000771 4.6024000 2
20062 20063 20064 20065 1 180.0000771 15.1670000 2
20062 20063 20064 20066 1 180.0000771 15.1670000 2
20065 20063 20064 20066 4 180.0000771 4.6024000 2
20062 20063 20072 20064 4 180.0000771 4.6024000 2
20062 20063 20072 20070 1 180.0000771 15.1670000 2
20062 20063 20072 20073 1 180.0000771 15.1670000 2
20064 20063 20072 20070 1 180.0000771 15.1670000 2
20064 20063 20072 20073 1 180.0000771 15.1670000 2
20065 20064 20063 20072 1 180.0000771 15.1670000 2
20066 20064 20063 20072 1 180.0000771 15.1670000 2
20063 20064 20066 20067 1 180.0000771 15.1670000 2
20063 20064 20066 20068 1 180.0000771 15.1670000 2
20065 20064 20066 20067 1 180.0000771 15.1670000 2
20065 20064 20066 20068 1 180.0000771 15.1670000 2
20064 20066 20068 20069 1 180.0000771 15.1670000 2
20064 20066 20068 20070 1 180.0000771 15.1670000 2
20067 20066 20068 20069 1 180.0000771 15.1670000 2
20067 20066 20068 20070 1 180.0000771 15.1670000 2
20064 20068 20066 20067 4 180.0000771 4.6024000 2
20066 20068 20070 20071 1 180.0000771 15.1670000 2
20066 20068 20070 20072 1 180.0000771 15.1670000 2
20069 20068 20070 20071 1 180.0000771 15.1670000 2
20069 20068 20070 20072 1 180.0000771 15.1670000 2
20066 20070 20068 20069 4 180.0000771 4.6024000 2
20063 20070 20072 20073 4 180.0000771 4.6024000 2
20068 20070 20072 20073 1 180.0000771 15.1670000 2
20071 20070 20072 20073 1 180.0000771 15.1670000 2
20063 20072 20070 20068 1 180.0000771 15.1670000 2
20063 20072 20070 20071 1 180.0000771 15.1670000 2
20068 20072 20070 20071 4 180.0000771 4.6024000 2
20074 20075 20076 20077 1 180.0000771 15.1670000 2
20074 20075 20076 20078 1 180.0000771 15.1670000 2
20077 20075 20076 20078 4 180.0000771 4.6024000 2
20074 20075 20084 20076 4 180.0000771 4.6024000 2
20074 20075 20084 20082 1 180.0000771 15.1670000 2
20074 20075 20084 20085 1 180.0000771 15.1670000 2
20076 20075 20084 20082 1 180.0000771 15.1670000 2
20076 20075 20084 20085 1 180.0000771 15.1670000 2
20077 20076 20075 20084 1 180.0000771 15.1670000 2
20078 20076 20075 20084 1 180.0000771 15.1670000 2
20075 20076 20078 20079 1 180.0000771 15.1670000 2
20075 20076 20078 20080 1 180.0000771 15.1670000 2
20077 20076 20078 20079 1 180.0000771 15.1670000 2
20077 20076 20078 20080 1 180.0000771 15.1670000 2
20076 20078 20080 20081 1 180.0000771 15.1670000 2
20076 20078 20080 20082 1 180.0000771 15.1670000 2
20079 20078 20080 20081 1 180.0000771 15.1670000 2
20079 20078 20080 20082 1 180.0000771 15.1670000 2
20076 20080 20078 20079 4 180.0000771 4.6024000 2
20078 20080 20082 20083 1 180.0000771 15.1670000 2
20078 20080 20082 20084 1 180.0000771 15.1670000 2
20081 20080 20082 20083 1 180.0000771 15.1670000 2
20081 20080 20082 20084 1 180.0000771 15.1670000 2
20078 20082 20080 20081 4 180.0000771 4.6024000 2
20075 20082 20084 20085 4 180.0000771 4.6024000 2
20080 20082 20084 20085 1 180.0000771 15.1670000 2
20083 20082 20084 20085 1 180.0000771 15.1670000 2
20075 20084 20082 20080 1 180.0000771 15.1670000 2
20075 20084 20082 20083 1 180.0000771 15.1670000 2
20080 20084 20082 20083 4 180.0000771 4.6024000 2
20086 20087 20088 20089 1 180.0000771 15.1670000 2
20086 20087 20088 20090 1 180.0000771 15.1670000 2
20089 20087 20088 20090 4 180.0000771 4.6024000 2
20086 20087 20096 20088 4 180.0000771 4.6024000 2
20086 20087 20096 20094 1 180.0000771 15.1670000 2
20086 20087 20096 20097 1 180.0000771 15.1670000 2
20088 20087 20096 20094 1 180.0000771 15.1670000 2
20088 20087 20096 20097 1 180.0000771 15.1670000 2
20089 20088 20087 20096 1 180.0000771 15.1670000 2
20090 20088 20087 20096 1 180.0000771 15.1670000 2
20087 20088 20090 20091 1 180.0000771 15.1670000 2
20087 20088 20090 20092 1 180.0000771 15.1670000 2
20089 20088 20090 20091 1 180.0000771 15.1670000 2
20089 20088 20090 20092 1 180.0000771 15.1670000 2
20088 20090 20092 20093 1 180.0000771 15.1670000 2
20088 20090 20092 20094 1 180.0000771 15.1670000 2
20091 20090 20092 20093 1 180.0000771 15.1670000 2
20091 20090 20092 20094 1 180.0000771 15.1670000 2
20088 20092 20090 20091 4 180.0000771 4.6024000 2
20090 20092 20094 20095 1 180.0000771 15.1670000 2
20090 20092 20094 20096 1 180.0000771 15.1670000 2
20093 20092 20094 20095 1 180.0000771 15.1670000 2
20093 20092 20094 20096 1 180.0000771 15.1670000 2
20090 20094 20092 20093 4 180.0000771 4.6024000 2
20087 20094 20096 20097 4 180.0000771 4.6024000 2
20092 20094 20096 20097 1 180.0000771 15.1670000 2
20095 20094 20096 20097 1 180.0000771 15.1670000 2
20087 20096 20094 20092 1 180.0000771 15.1670000 2
20087 20096 20094 20095 1 180.0000771 15.1670000 2
20092 20096 20094 20095 4 180.0000771 4.6024000 2
20098 20099 20100 20101 1 180.0000771 15.1670000 2
20098 20099 20100 20102 1 180.0000771 15.1670000 2
20101 20099 20100 20102 4 180.0000771 4.6024000 2
20098 20099 20108 20100 4 180.0000771 4.6024000 2
20098 20099 20108 20106 1 180.0000771 15.1670000 2
20098 20099 20108 20109 1 180.0000771 15.1670000 2
20100 20099 20108 20106 1 180.0000771 15.1670000 2
20100 20099 20108 20109 1 180.0000771 15.1670000 2
20101 20100 20099 20108 1 180.0000771 15.1670000 2
20102 20100 20099 20108 1 180.0000771 15.1670000 2
20099 20100 20102 20103 1 180.0000771 15.1670000 2
20099 20100 20102 20104 1 180.0000771 15.1670000 2
20101 20100 20102 20103 1 180.0000771 15.1670000 2
20101 20100 20102 20104 1 180.0000771 15.1670000 2
20100 20102 20104 20105 1 180.0000771 15.1670000 2
20100 20102 20104 20106 1 180.0000771 15.1670000 2
20103 20102 20104 20105 1 180.0000771 15.1670000 2
20103 20102 20104 20106 1 180.0000771 15.1670000 2
20100 20104 20102 20103 4 180.0000771 4.6024000 2
20102 20104 20106 20107 1 180.0000771 15.1670000 2
20102 20104 20106 20108 1 180.0000771 15.1670000 2
20105 20104 20106 20107 1 180.0000771 15.1670000 2
20105 20104 20106 20108 1 180.0000771 15.1670000 2
20102 20106 20104 20105 4 180.0000771 4.6024000 2
20099 20106 20108 20109 4 180.0000771 4.6024000 2
20104 20106 20108 20109 1 180.0000771 15.1670000 2
20107 20106 20108 20109 1 180.0000771 15.1670000 2
20099 20108 20106 20104 1 180.0000771 15.1670000 2
20099 20108 20106 20107 1 180.0000771 15.1670000 2
20104 20108 20106 20107 4 180.0000771 4.6024000 2
20110 20111 20112 20113 1 180.0000771 15.1670000 2
20110 20111 20112 20114 1 180.0000771 15.1670000 2
20113 20111 20112 20114 4 180.0000771 4.6024000 2
20110 20111 20120 20112 4 180.0000771 4.6024000 2
20110 20111 20120 20118 1 180.0000771 15.1670000 2
20110 20111 20120 20121 1 180.0000771 15.1670000 2
20112 20111 20120 20118 1 180.0000771 15.1670000 2
20112 20111 20120 20121 1 180.0000771 15.1670000 2
20113 20112 20111 20120 1 180.0000771 15.1670000 2
20114 20112 20111 20120 1 180.0000771 15.1670000 2
20111 20112 20114 20115 1 180.0000771 15.1670000 2
20111 20112 20114 20116 1 180.0000771 15.1670000 2
20113 20112 20114 20115 1 180.0000771 15.1670000 2
20113 20112 20114 20116 1 180.0000771 15.1670000 2
20112 20114 20116 20117 1 180.0000771 15.1670000 2
20112 20114 20116 20118 1 180.0000771 15.1670000 2
20115 20114 20116 20117 1 180.0000771 15.1670000 2
20115 20114 20116 20118 1 180.0000771 15.1670000 2
20112 20116 20114 20115 4 180.0000771 4.6024000 2
20114 20116 20118 20119 1 180.0000771 15.1670000 2
20114 20116 20118 20120 1 180.0000771 15.1670000 2
20117 20116 20118 20119 1 180.0000771 15.1670000 2
20117 20116 20118 20120 1 180.0000771 15.1670000 2
20114 20118 20116 20117 4 180.0000771 4.6024000 2
20111 20118 20120 20121 4 180.0000771 4.6024000 2
20116 20118 20120 20121 1 180.0000771 15.1670000 2
20119 20118 20120 20121 1 180.0000771 15.1670000 2
20111 20120 20118 20116 1 180.0000771 15.1670000 2
20111 20120 20118 20119 1 180.0000771 15.1670000 2
20116 20120 20118 20119 4 180.0000771 4.6024000 2
20122 20123 20124 20125 1 180.0000771 15.1670000 2
20122 20123 20124 20126 1 180.0000771 15.1670000 2
20125 20123 20124 20126 4 180.0000771 4.6024000 2
20122 20123 20132 20124 4 180.0000771 4.6024000 2
20122 20123 20132 20130 1 180.0000771 15.1670000 2
20122 20123 20132 20133 1 180.0000771 15.1670000 2
20124 20123 20132 20130 1 180.0000771 15.1670000 2
20124 20123 20132 20133 1 180.0000771 15.1670000 2
20125 20124 20123 20132 1 180.0000771 15.1670000 2
20126 20124 20123 20132 1 180.0000771 15.1670000 2
20123 20124 20126 20127 1 180.0000771 15.1670000 2
20123 20124 20126 20128 1 180.0000771 15.1670000 2
20125 20124 20126 20127 1 180.0000771 15.1670000 2
20125 20124 20126 20128 1 180.0000771 15.1670000 2
20124 20126 20128 20129 1 180.0000771 15.1670000 2
20124 20126 20128 20130 1 180.0000771 15.1670000 2
20127 20126 20128 20129 1 180.0000771 15.1670000 2
20127 20126 20128 20130 1 180.0000771 15.1670000 2
20124 20128 20126 20127 4 180.0000771 4.6024000 2
20126 20128 20130 20131 1 180.0000771 15.1670000 2
20126 20128 20130 20132 1 180.0000771 15.1670000 2
20129 20128 20130 20131 1 180.0000771 15.1670000 2
20129 20128 20130 20132 1 180.0000771 15.1670000 2
20126 20130 20128 20129 4 180.0000771 4.6024000 2
20123 20130 20132 20133 4 180.0000771 4.6024000 2
20128 20130 20132 20133 1 180.0000771 15.1670000 2
20131 20130 20132 20133 1 180.0000771 15.1670000 2
20123 20132 20130 20128 1 180.0000771 15.1670000 2
20123 20132 20130 20131 1 180.0000771 15.1670000 2
20128 20132 20130 20131 4 180.0000771 4.6024000 2
20134 20135 20136 20137 1 180.0000771 15.1670000 2
20134 20135 20136 20138 1 180.0000771 15.1670000 2
20137 20135 20136 20138 4 180.0000771 4.6024000 2
20134 20135 20144 20136 4 180.0000771 4.6024000 2
20134 20135 20144 20142 1 180.0000771 15.1670000 2
20134 20135 20144 20145 1 180.0000771 15.1670000 2
20136 20135 20144 20142 1 180.0000771 15.1670000 2
20136 20135 20144 20145 1 180.0000771 15.1670000 2
20137 20136 20135 20144 1 180.0000771 15.1670000 2
20138 20136 20135 20144 1 180.0000771 15.1670000 2
20135 20136 20138 20139 1 180.0000771 15.1670000 2
20135 20136 20138 20140 1 180.0000771 15.1670000 2
20137 20136 20138 20139 1 180.0000771 15.1670000 2
20137 20136 20138 20140 1 180.0000771 15.1670000 2
20136 20138 20140 20141 1 180.0000771 15.1670000 2
20136 20138 20140 20142 1 180.0000771 15.1670000 2
20139 20138 20140 20141 1 180.0000771 15.1670000 2
20139 20138 20140 20142 1 180.0000771 15.1670000 2
20136 20140 20138 20139 4 180.0000771 4.6024000 2
20138 20140 20142 20143 1 180.0000771 15.1670000 2
20138 20140 20142 20144 1 180.0000771 15.1670000 2
20141 20140 20142 20143 1 180.0000771 15.1670000 2
20141 20140 20142 20144 1 180.0000771 15.1670000 2
20138 20142 20140 20141 4 180.0000771 4.6024000 2
20135 20142 20144 20145 4 180.0000771 4.6024000 2
20140 20142 20144 20145 1 180.0000771 15.1670000 2
20143 20142 20144 20145 1 180.0000771 15.1670000 2
20135 20144 20142 20140 1 180.0000771 15.1670000 2
20135 20144 20142 20143 1 180.0000771 15.1670000 2
20140 20144 20142 20143 4 180.0000771 4.6024000 2
20146 20147 20148 20149 1 180.0000771 15.1670000 2
20146 20147 20148 20150 1 180.0000771 15.1670000 2
20149 20147 20148 20150 4 180.0000771 4.6024000 2
20146 20147 20156 20148 4 180.0000771 4.6024000 2
20146 20147 20156 20154 1 180.0000771 15.1670000 2
20146 20147 20156 20157 1 180.0000771 15.1670000 2
20148 20147 20156 20154 1 180.0000771 15.1670000 2
20148 20147 20156 20157 1 180.0000771 15.1670000 2
20149 20148 20147 20156 1 180.0000771 15.1670000 2
20150 20148 20147 20156 1 180.0000771 15.1670000 2
20147 20148 20150 20151 1 180.0000771 15.1670000 2
20147 20148 20150 20152 1 180.0000771 15.1670000 2
20149 20148 20150 20151 1 180.0000771 15.1670000 2
20149 20148 20150 20152 1 180.0000771 15.1670000 2
20148 20150 20152 20153 1 180.0000771 15.1670000 2
20148 20150 20152 20154 1 180.0000771 15.1670000 2
20151 20150 20152 20153 1 180.0000771 15.1670000 2
20151 20150 20152 20154 1 180.0000771 15.1670000 2
20148 20152 20150 20151 4 180.0000771 4.6024000 2
20150 20152 20154 20155 1 180.0000771 15.1670000 2
20150 20152 20154 20156 1 180.0000771 15.1670000 2
20153 20152 20154 20155 1 180.0000771 15.1670000 2
20153 20152 20154 20156 1 180.0000771 15.1670000 2
20150 20154 20152 20153 4 180.0000771 4.6024000 2
20147 20154 20156 20157 4 180.0000771 4.6024000 2
20152 20154 20156 20157 1 180.0000771 15.1670000 2
20155 20154 20156 20157 1 180.0000771 15.1670000 2
20147 20156 20154 20152 1 180.0000771 15.1670000 2
20147 20156 20154 20155 1 180.0000771 15.1670000 2
20152 20156 20154 20155 4 180.0000771 4.6024000 2
20158 20159 20160 20161 1 180.0000771 15.1670000 2
20158 20159 20160 20162 1 180.0000771 15.1670000 2
20161 20159 20160 20162 4 180.0000771 4.6024000 2
20158 20159 20168 20160 4 180.0000771 4.6024000 2
20158 20159 20168 20166 1 180.0000771 15.1670000 2
20158 20159 20168 20169 1 180.0000771 15.1670000 2
20160 20159 20168 20166 1 180.0000771 15.1670000 2
20160 20159 20168 20169 1 180.0000771 15.1670000 2
20161 20160 20159 20168 1 180.0000771 15.1670000 2
20162 20160 20159 20168 1 180.0000771 15.1670000 2
20159 20160 20162 20163 1 180.0000771 15.1670000 2
20159 20160 20162 20164 1 180.0000771 15.1670000 2
20161 20160 20162 20163 1 180.0000771 15.1670000 2
20161 20160 20162 20164 1 180.0000771 15.1670000 2
20160 20162 20164 20165 1 180.0000771 15.1670000 2
20160 20162 20164 20166 1 180.0000771 15.1670000 2
20163 20162 20164 20165 1 180.0000771 15.1670000 2
20163 20162 20164 20166 1 180.0000771 15.1670000 2
20160 20164 20162 20163 4 180.0000771 4.6024000 2
20162 20164 20166 20167 1 180.0000771 15.1670000 2
20162 20164 20166 20168 1 180.0000771 15.1670000 2
20165 20164 20166 20167 1 180.0000771 15.1670000 2
20165 20164 20166 20168 1 180.0000771 15.1670000 2
20162 20166 20164 20165 4 180.0000771 4.6024000 2
20159 20166 20168 20169 4 180.0000771 4.6024000 2
20164 20166 20168 20169 1 180.0000771 15.1670000 2
20167 20166 20168 20169 1 180.0000771 15.1670000 2
20159 20168 20166 20164 1 180.0000771 15.1670000 2
20159 20168 20166 20167 1 180.0000771 15.1670000 2
20164 20168 20166 20167 4 180.0000771 4.6024000 2
20170 20171 20172 20173 1 180.0000771 15.1670000 2
20170 20171 20172 20174 1 180.0000771 15.1670000 2
20173 20171 20172 20174 4 180.0000771 4.6024000 2
20170 20171 20180 20172 4 180.0000771 4.6024000 2
20170 20171 20180 20178 1 180.0000771 15.1670000 2
20170 20171 20180 20181 1 180.0000771 15.1670000 2
20172 20171 20180 20178 1 180.0000771 15.1670000 2
20172 20171 20180 20181 1 180.0000771 15.1670000 2
20173 20172 20171 20180 1 180.0000771 15.1670000 2
20174 20172 20171 20180 1 180.0000771 15.1670000 2
20171 20172 20174 20175 1 180.0000771 15.1670000 2
20171 20172 20174 20176 1 180.0000771 15.1670000 2
20173 20172 20174 20175 1 180.0000771 15.1670000 2
20173 20172 20174 20176 1 180.0000771 15.1670000 2
20172 20174 20176 20177 1 180.0000771 15.1670000 2
20172 20174 20176 20178 1 180.0000771 15.1670000 2
20175 20174 20176 20177 1 180.0000771 15.1670000 2
20175 20174 20176 20178 1 180.0000771 15.1670000 2
20172 20176 20174 20175 4 180.0000771 4.6024000 2
20174 20176 20178 20179 1 180.0000771 15.1670000 2
20174 20176 20178 20180 1 180.0000771 15.1670000 2
20177 20176 20178 20179 1 180.0000771 15.1670000 2
20177 20176 20178 20180 1 180.0000771 15.1670000 2
20174 20178 20176 20177 4 180.0000771 4.6024000 2
20171 20178 20180 20181 4 180.0000771 4.6024000 2
20176 20178 20180 20181 1 180.0000771 15.1670000 2
20179 20178 20180 20181 1 180.0000771 15.1670000 2
20171 20180 20178 20176 1 180.0000771 15.1670000 2
20171 20180 20178 20179 1 180.0000771 15.1670000 2
20176 20180 20178 20179 4 180.0000771 4.6024000 2
20182 20183 20184 20185 1 180.0000771 15.1670000 2
20182 20183 20184 20186 1 180.0000771 15.1670000 2
20185 20183 20184 20186 4 180.0000771 4.6024000 2
20182 20183 20192 20184 4 180.0000771 4.6024000 2
20182 20183 20192 20190 1 180.0000771 15.1670000 2
20182 20183 20192 20193 1 180.0000771 15.1670000 2
20184 20183 20192 20190 1 180.0000771 15.1670000 2
20184 20183 20192 20193 1 180.0000771 15.1670000 2
20185 20184 20183 20192 1 180.0000771 15.1670000 2
20186 20184 20183 20192 1 180.0000771 15.1670000 2
20183 20184 20186 20187 1 180.0000771 15.1670000 2
20183 20184 20186 20188 1 180.0000771 15.1670000 2
20185 20184 20186 20187 1 180.0000771 15.1670000 2
20185 20184 20186 20188 1 180.0000771 15.1670000 2
20184 20186 20188 20189 1 180.0000771 15.1670000 2
20184 20186 20188 20190 1 180.0000771 15.1670000 2
20187 20186 20188 20189 1 180.0000771 15.1670000 2
20187 20186 20188 20190 1 180.0000771 15.1670000 2
20184 20188 20186 20187 4 180.0000771 4.6024000 2
20186 20188 20190 20191 1 180.0000771 15.1670000 2
20186 20188 20190 20192 1 180.0000771 15.1670000 2
20189 20188 20190 20191 1 180.0000771 15.1670000 2
20189 20188 20190 20192 1 180.0000771 15.1670000 2
20186 20190 20188 20189 4 180.0000771 4.6024000 2
20183 20190 20192 20193 4 180.0000771 4.6024000 2
20188 20190 20192 20193 1 180.0000771 15.1670000 2
20191 20190 20192 20193 1 180.0000771 15.1670000 2
20183 20192 20190 20188 1 180.0000771 15.1670000 2
20183 20192 20190 20191 1 180.0000771 15.1670000 2
20188 20192 20190 20191 4 180.0000771 4.6024000 2
20194 20195 20196 20197 1 180.0000771 15.1670000 2
20194 20195 20196 20198 1 180.0000771 15.1670000 2
20197 20195 20196 20198 4 180.0000771 4.6024000 2
20194 20195 20204 20196 4 180.0000771 4.6024000 2
20194 20195 20204 20202 1 180.0000771 15.1670000 2
20194 20195 20204 20205 1 180.0000771 15.1670000 2
20196 20195 20204 20202 1 180.0000771 15.1670000 2
20196 20195 20204 20205 1 180.0000771 15.1670000 2
20197 20196 20195 20204 1 180.0000771 15.1670000 2
20198 20196 20195 20204 1 180.0000771 15.1670000 2
20195 20196 20198 20199 1 180.0000771 15.1670000 2
20195 20196 20198 20200 1 180.0000771 15.1670000 2
20197 20196 20198 20199 1 180.0000771 15.1670000 2
20197 20196 20198 20200 1 180.0000771 15.1670000 2
20196 20198 20200 20201 1 180.0000771 15.1670000 2
20196 20198 20200 20202 1 180.0000771 15.1670000 2
20199 20198 20200 20201 1 180.0000771 15.1670000 2
20199 20198 20200 20202 1 180.0000771 15.1670000 2
20196 20200 20198 20199 4 180.0000771 4.6024000 2
20198 20200 20202 20203 1 180.0000771 15.1670000 2
20198 20200 20202 20204 1 180.0000771 15.1670000 2
20201 20200 20202 20203 1 180.0000771 15.1670000 2
20201 20200 20202 20204 1 180.0000771 15.1670000 2
20198 20202 20200 20201 4 180.0000771 4.6024000 2
20195 20202 20204 20205 4 180.0000771 4.6024000 2
20200 20202 20204 20205 1 180.0000771 15.1670000 2
20203 20202 20204 20205 1 180.0000771 15.1670000 2
20195 20204 20202 20200 1 180.0000771 15.1670000 2
20195 20204 20202 20203 1 180.0000771 15.1670000 2
20200 20204 20202 20203 4 180.0000771 4.6024000 2
20206 20207 20208 20209 1 180.0000771 15.1670000 2
20206 20207 20208 20210 1 180.0000771 15.1670000 2
20209 20207 20208 20210 4 180.0000771 4.6024000 2
20206 20207 20216 20208 4 180.0000771 4.6024000 2
20206 20207 20216 20214 1 180.0000771 15.1670000 2
20206 20207 20216 20217 1 180.0000771 15.1670000 2
20208 20207 20216 20214 1 180.0000771 15.1670000 2
20208 20207 20216 20217 1 180.0000771 15.1670000 2
20209 20208 20207 20216 1 180.0000771 15.1670000 2
20210 20208 20207 20216 1 180.0000771 15.1670000 2
20207 20208 20210 20211 1 180.0000771 15.1670000 2
20207 20208 20210 20212 1 180.0000771 15.1670000 2
20209 20208 20210 20211 1 180.0000771 15.1670000 2
20209 20208 20210 20212 1 180.0000771 15.1670000 2
20208 20210 20212 20213 1 180.0000771 15.1670000 2
20208 20210 20212 20214 1 180.0000771 15.1670000 2
20211 20210 20212 20213 1 180.0000771 15.1670000 2
20211 20210 20212 20214 1 180.0000771 15.1670000 2
20208 20212 20210 20211 4 180.0000771 4.6024000 2
20210 20212 20214 20215 1 180.0000771 15.1670000 2
20210 20212 20214 20216 1 180.0000771 15.1670000 2
20213 20212 20214 20215 1 180.0000771 15.1670000 2
20213 20212 20214 20216 1 180.0000771 15.1670000 2
20210 20214 20212 20213 4 180.0000771 4.6024000 2
20207 20214 20216 20217 4 180.0000771 4.6024000 2
20212 20214 20216 20217 1 180.0000771 15.1670000 2
20215 20214 20216 20217 1 180.0000771 15.1670000 2
20207 20216 20214 20212 1 180.0000771 15.1670000 2
20207 20216 20214 20215 1 180.0000771 15.1670000 2
20212 20216 20214 20215 4 180.0000771 4.6024000 2
20218 20219 20220 20221 1 180.0000771 15.1670000 2
20218 20219 20220 20222 1 180.0000771 15.1670000 2
20221 20219 20220 20222 4 180.0000771 4.6024000 2
20218 20219 20228 20220 4 180.0000771 4.6024000 2
20218 20219 20228 20226 1 180.0000771 15.1670000 2
20218 20219 20228 20229 1 180.0000771 15.1670000 2
20220 20219 20228 20226 1 180.0000771 15.1670000 2
20220 20219 20228 20229 1 180.0000771 15.1670000 2
20221 20220 20219 20228 1 180.0000771 15.1670000 2
20222 20220 20219 20228 1 180.0000771 15.1670000 2
20219 20220 20222 20223 1 180.0000771 15.1670000 2
20219 20220 20222 20224 1 180.0000771 15.1670000 2
20221 20220 20222 20223 1 180.0000771 15.1670000 2
20221 20220 20222 20224 1 180.0000771 15.1670000 2
20220 20222 20224 20225 1 180.0000771 15.1670000 2
20220 20222 20224 20226 1 180.0000771 15.1670000 2
20223 20222 20224 20225 1 180.0000771 15.1670000 2
20223 20222 20224 20226 1 180.0000771 15.1670000 2
20220 20224 20222 20223 4 180.0000771 4.6024000 2
20222 20224 20226 20227 1 180.0000771 15.1670000 2
20222 20224 20226 20228 1 180.0000771 15.1670000 2
20225 20224 20226 20227 1 180.0000771 15.1670000 2
20225 20224 20226 20228 1 180.0000771 15.1670000 2
20222 20226 20224 20225 4 180.0000771 4.6024000 2
20219 20226 20228 20229 4 180.0000771 4.6024000 2
20224 20226 20228 20229 1 180.0000771 15.1670000 2
20227 20226 20228 20229 1 180.0000771 15.1670000 2
20219 20228 20226 20224 1 180.0000771 15.1670000 2
20219 20228 20226 20227 1 180.0000771 15.1670000 2
20224 20228 20226 20227 4 180.0000771 4.6024000 2
20230 20231 20232 20233 1 180.0000771 15.1670000 2
20230 20231 20232 20234 1 180.0000771 15.1670000 2
20233 20231 20232 20234 4 180.0000771 4.6024000 2
20230 20231 20240 20232 4 180.0000771 4.6024000 2
20230 20231 20240 20238 1 180.0000771 15.1670000 2
20230 20231 20240 20241 1 180.0000771 15.1670000 2
20232 20231 20240 20238 1 180.0000771 15.1670000 2
20232 20231 20240 20241 1 180.0000771 15.1670000 2
20233 20232 20231 20240 1 180.0000771 15.1670000 2
20234 20232 20231 20240 1 180.0000771 15.1670000 2
20231 20232 20234 20235 1 180.0000771 15.1670000 2
20231 20232 20234 20236 1 180.0000771 15.1670000 2
20233 20232 20234 20235 1 180.0000771 15.1670000 2
20233 20232 20234 20236 1 180.0000771 15.1670000 2
20232 20234 20236 20237 1 180.0000771 15.1670000 2
20232 20234 20236 20238 1 180.0000771 15.1670000 2
20235 20234 20236 20237 1 180.0000771 15.1670000 2
20235 20234 20236 20238 1 180.0000771 15.1670000 2
20232 20236 20234 20235 4 180.0000771 4.6024000 2
20234 20236 20238 20239 1 180.0000771 15.1670000 2
20234 20236 20238 20240 1 180.0000771 15.1670000 2
20237 20236 20238 20239 1 180.0000771 15.1670000 2
20237 20236 20238 20240 1 180.0000771 15.1670000 2
20234 20238 20236 20237 4 180.0000771 4.6024000 2
20231 20238 20240 20241 4 180.0000771 4.6024000 2
20236 20238 20240 20241 1 180.0000771 15.1670000 2
20239 20238 20240 20241 1 180.0000771 15.1670000 2
20231 20240 20238 20236 1 180.0000771 15.1670000 2
20231 20240 20238 20239 1 180.0000771 15.1670000 2
20236 20240 20238 20239 4 180.0000771 4.6024000 2
20242 20243 20244 20245 1 180.0000771 15.1670000 2
20242 20243 20244 20246 1 180.0000771 15.1670000 2
20245 20243 20244 20246 4 180.0000771 4.6024000 2
20242 20243 20252 20244 4 180.0000771 4.6024000 2
20242 20243 20252 20250 1 180.0000771 15.1670000 2
20242 20243 20252 20253 1 180.0000771 15.1670000 2
20244 20243 20252 20250 1 180.0000771 15.1670000 2
20244 20243 20252 20253 1 180.0000771 15.1670000 2
20245 20244 20243 20252 1 180.0000771 15.1670000 2
20246 20244 20243 20252 1 180.0000771 15.1670000 2
20243 20244 20246 20247 1 180.0000771 15.1670000 2
20243 20244 20246 20248 1 180.0000771 15.1670000 2
20245 20244 20246 20247 1 180.0000771 15.1670000 2
20245 20244 20246 20248 1 180.0000771 15.1670000 2
20244 20246 20248 20249 1 180.0000771 15.1670000 2
20244 20246 20248 20250 1 180.0000771 15.1670000 2
20247 20246 20248 20249 1 180.0000771 15.1670000 2
20247 20246 20248 20250 1 180.0000771 15.1670000 2
20244 20248 20246 20247 4 180.0000771 4.6024000 2
20246 20248 20250 20251 1 180.0000771 15.1670000 2
20246 20248 20250 20252 1 180.0000771 15.1670000 2
20249 20248 20250 20251 1 180.0000771 15.1670000 2
20249 20248 20250 20252 1 180.0000771 15.1670000 2
20246 20250 20248 20249 4 180.0000771 4.6024000 2
20243 20250 20252 20253 4 180.0000771 4.6024000 2
20248 20250 20252 20253 1 180.0000771 15.1670000 2
20251 20250 20252 20253 1 180.0000771 15.1670000 2
20243 20252 20250 20248 1 180.0000771 15.1670000 2
20243 20252 20250 20251 1 180.0000771 15.1670000 2
20248 20252 20250 20251 4 180.0000771 4.6024000 2
20254 20255 20256 20257 1 180.0000771 15.1670000 2
20254 20255 20256 20258 1 180.0000771 15.1670000 2
20257 20255 20256 20258 4 180.0000771 4.6024000 2
20254 20255 20264 20256 4 180.0000771 4.6024000 2
20254 20255 20264 20262 1 180.0000771 15.1670000 2
20254 20255 20264 20265 1 180.0000771 15.1670000 2
20256 20255 20264 20262 1 180.0000771 15.1670000 2
20256 20255 20264 20265 1 180.0000771 15.1670000 2
20257 20256 20255 20264 1 180.0000771 15.1670000 2
20258 20256 20255 20264 1 180.0000771 15.1670000 2
20255 20256 20258 20259 1 180.0000771 15.1670000 2
20255 20256 20258 20260 1 180.0000771 15.1670000 2
20257 20256 20258 20259 1 180.0000771 15.1670000 2
20257 20256 20258 20260 1 180.0000771 15.1670000 2
20256 20258 20260 20261 1 180.0000771 15.1670000 2
20256 20258 20260 20262 1 180.0000771 15.1670000 2
20259 20258 20260 20261 1 180.0000771 15.1670000 2
20259 20258 20260 20262 1 180.0000771 15.1670000 2
20256 20260 20258 20259 4 180.0000771 4.6024000 2
20258 20260 20262 20263 1 180.0000771 15.1670000 2
20258 20260 20262 20264 1 180.0000771 15.1670000 2
20261 20260 20262 20263 1 180.0000771 15.1670000 2
20261 20260 20262 20264 1 180.0000771 15.1670000 2
20258 20262 20260 20261 4 180.0000771 4.6024000 2
20255 20262 20264 20265 4 180.0000771 4.6024000 2
20260 20262 20264 20265 1 180.0000771 15.1670000 2
20263 20262 20264 20265 1 180.0000771 15.1670000 2
20255 20264 20262 20260 1 180.0000771 15.1670000 2
20255 20264 20262 20263 1 180.0000771 15.1670000 2
20260 20264 20262 20263 4 180.0000771 4.6024000 2
20266 20267 20268 20269 1 180.0000771 15.1670000 2
20266 20267 20268 20270 1 180.0000771 15.1670000 2
20269 20267 20268 20270 4 180.0000771 4.6024000 2
20266 20267 20276 20268 4 180.0000771 4.6024000 2
20266 20267 20276 20274 1 180.0000771 15.1670000 2
20266 20267 20276 20277 1 180.0000771 15.1670000 2
20268 20267 20276 20274 1 180.0000771 15.1670000 2
20268 20267 20276 20277 1 180.0000771 15.1670000 2
20269 20268 20267 20276 1 180.0000771 15.1670000 2
20270 20268 20267 20276 1 180.0000771 15.1670000 2
20267 20268 20270 20271 1 180.0000771 15.1670000 2
20267 20268 20270 20272 1 180.0000771 15.1670000 2
20269 20268 20270 20271 1 180.0000771 15.1670000 2
20269 20268 20270 20272 1 180.0000771 15.1670000 2
20268 20270 20272 20273 1 180.0000771 15.1670000 2
20268 20270 20272 20274 1 180.0000771 15.1670000 2
20271 20270 20272 20273 1 180.0000771 15.1670000 2
20271 20270 20272 20274 1 180.0000771 15.1670000 2
20268 20272 20270 20271 4 180.0000771 4.6024000 2
20270 20272 20274 20275 1 180.0000771 15.1670000 2
20270 20272 20274 20276 1 180.0000771 15.1670000 2
20273 20272 20274 20275 1 180.0000771 15.1670000 2
20273 20272 20274 20276 1 180.0000771 15.1670000 2
20270 20274 20272 20273 4 180.0000771 4.6024000 2
20267 20274 20276 20277 4 180.0000771 4.6024000 2
20272 20274 20276 20277 1 180.0000771 15.1670000 2
20275 20274 20276 20277 1 180.0000771 15.1670000 2
20267 20276 20274 20272 1 180.0000771 15.1670000 2
20267 20276 20274 20275 1 180.0000771 15.1670000 2
20272 20276 20274 20275 4 180.0000771 4.6024000 2
20278 20279 20280 20281 1 180.0000771 15.1670000 2
20278 20279 20280 20282 1 180.0000771 15.1670000 2
20281 20279 20280 20282 4 180.0000771 4.6024000 2
20278 20279 20288 20280 4 180.0000771 4.6024000 2
20278 20279 20288 20286 1 180.0000771 15.1670000 2
20278 20279 20288 20289 1 180.0000771 15.1670000 2
20280 20279 20288 20286 1 180.0000771 15.1670000 2
20280 20279 20288 20289 1 180.0000771 15.1670000 2
20281 20280 20279 20288 1 180.0000771 15.1670000 2
20282 20280 20279 20288 1 180.0000771 15.1670000 2
20279 20280 20282 20283 1 180.0000771 15.1670000 2
20279 20280 20282 20284 1 180.0000771 15.1670000 2
20281 20280 20282 20283 1 180.0000771 15.1670000 2
20281 20280 20282 20284 1 180.0000771 15.1670000 2
20280 20282 20284 20285 1 180.0000771 15.1670000 2
20280 20282 20284 20286 1 180.0000771 15.1670000 2
20283 20282 20284 20285 1 180.0000771 15.1670000 2
20283 20282 20284 20286 1 180.0000771 15.1670000 2
20280 20284 20282 20283 4 180.0000771 4.6024000 2
20282 20284 20286 20287 1 180.0000771 15.1670000 2
20282 20284 20286 20288 1 180.0000771 15.1670000 2
20285 20284 20286 20287 1 180.0000771 15.1670000 2
20285 20284 20286 20288 1 180.0000771 15.1670000 2
20282 20286 20284 20285 4 180.0000771 4.6024000 2
20279 20286 20288 20289 4 180.0000771 4.6024000 2
20284 20286 20288 20289 1 180.0000771 15.1670000 2
20287 20286 20288 20289 1 180.0000771 15.1670000 2
20279 20288 20286 20284 1 180.0000771 15.1670000 2
20279 20288 20286 20287 1 180.0000771 15.1670000 2
20284 20288 20286 20287 4 180.0000771 4.6024000 2
20290 20291 20292 20293 1 180.0000771 15.1670000 2
20290 20291 20292 20294 1 180.0000771 15.1670000 2
20293 20291 20292 20294 4 180.0000771 4.6024000 2
20290 20291 20300 20292 4 180.0000771 4.6024000 2
20290 20291 20300 20298 1 180.0000771 15.1670000 2
20290 20291 20300 20301 1 180.0000771 15.1670000 2
20292 20291 20300 20298 1 180.0000771 15.1670000 2
20292 20291 20300 20301 1 180.0000771 15.1670000 2
20293 20292 20291 20300 1 180.0000771 15.1670000 2
20294 20292 20291 20300 1 180.0000771 15.1670000 2
20291 20292 20294 20295 1 180.0000771 15.1670000 2
20291 20292 20294 20296 1 180.0000771 15.1670000 2
20293 20292 20294 20295 1 180.0000771 15.1670000 2
20293 20292 20294 20296 1 180.0000771 15.1670000 2
20292 20294 20296 20297 1 180.0000771 15.1670000 2
20292 20294 20296 20298 1 180.0000771 15.1670000 2
20295 20294 20296 20297 1 180.0000771 15.1670000 2
20295 20294 20296 20298 1 180.0000771 15.1670000 2
20292 20296 20294 20295 4 180.0000771 4.6024000 2
20294 20296 20298 20299 1 180.0000771 15.1670000 2
20294 20296 20298 20300 1 180.0000771 15.1670000 2
20297 20296 20298 20299 1 180.0000771 15.1670000 2
20297 20296 20298 20300 1 180.0000771 15.1670000 2
20294 20298 20296 20297 4 180.0000771 4.6024000 2
20291 20298 20300 20301 4 180.0000771 4.6024000 2
20296 20298 20300 20301 1 180.0000771 15.1670000 2
20299 20298 20300 20301 1 180.0000771 15.1670000 2
20291 20300 20298 20296 1 180.0000771 15.1670000 2
20291 20300 20298 20299 1 180.0000771 15.1670000 2
20296 20300 20298 20299 4 180.0000771 4.6024000 2
20302 20303 20304 20305 1 180.0000771 15.1670000 2
20302 20303 20304 20306 1 180.0000771 15.1670000 2
20305 20303 20304 20306 4 180.0000771 4.6024000 2
20302 20303 20312 20304 4 180.0000771 4.6024000 2
20302 20303 20312 20310 1 180.0000771 15.1670000 2
20302 20303 20312 20313 1 180.0000771 15.1670000 2
20304 20303 20312 20310 1 180.0000771 15.1670000 2
20304 20303 20312 20313 1 180.0000771 15.1670000 2
20305 20304 20303 20312 1 180.0000771 15.1670000 2
20306 20304 20303 20312 1 180.0000771 15.1670000 2
20303 20304 20306 20307 1 180.0000771 15.1670000 2
20303 20304 20306 20308 1 180.0000771 15.1670000 2
20305 20304 20306 20307 1 180.0000771 15.1670000 2
20305 20304 20306 20308 1 180.0000771 15.1670000 2
20304 20306 20308 20309 1 180.0000771 15.1670000 2
20304 20306 20308 20310 1 180.0000771 15.1670000 2
20307 20306 20308 20309 1 180.0000771 15.1670000 2
20307 20306 20308 20310 1 180.0000771 15.1670000 2
20304 20308 20306 20307 4 180.0000771 4.6024000 2
20306 20308 20310 20311 1 180.0000771 15.1670000 2
20306 20308 20310 20312 1 180.0000771 15.1670000 2
20309 20308 20310 20311 1 180.0000771 15.1670000 2
20309 20308 20310 20312 1 180.0000771 15.1670000 2
20306 20310 20308 20309 4 180.0000771 4.6024000 2
20303 20310 20312 20313 4 180.0000771 4.6024000 2
20308 20310 20312 20313 1 180.0000771 15.1670000 2
20311 20310 20312 20313 1 180.0000771 15.1670000 2
20303 20312 20310 20308 1 180.0000771 15.1670000 2
20303 20312 20310 20311 1 180.0000771 15.1670000 2
20308 20312 20310 20311 4 180.0000771 4.6024000 2
20314 20315 20316 20317 1 180.0000771 15.1670000 2
20314 20315 20316 20318 1 180.0000771 15.1670000 2
20317 20315 20316 20318 4 180.0000771 4.6024000 2
20314 20315 20324 20316 4 180.0000771 4.6024000 2
20314 20315 20324 20322 1 180.0000771 15.1670000 2
20314 20315 20324 20325 1 180.0000771 15.1670000 2
20316 20315 20324 20322 1 180.0000771 15.1670000 2
20316 20315 20324 20325 1 180.0000771 15.1670000 2
20317 20316 20315 20324 1 180.0000771 15.1670000 2
20318 20316 20315 20324 1 180.0000771 15.1670000 2
20315 20316 20318 20319 1 180.0000771 15.1670000 2
20315 20316 20318 20320 1 180.0000771 15.1670000 2
20317 20316 20318 20319 1 180.0000771 15.1670000 2
20317 20316 20318 20320 1 180.0000771 15.1670000 2
20316 20318 20320 20321 1 180.0000771 15.1670000 2
20316 20318 20320 20322 1 180.0000771 15.1670000 2
20319 20318 20320 20321 1 180.0000771 15.1670000 2
20319 20318 20320 20322 1 180.0000771 15.1670000 2
20316 20320 20318 20319 4 180.0000771 4.6024000 2
20318 20320 20322 20323 1 180.0000771 15.1670000 2
20318 20320 20322 20324 1 180.0000771 15.1670000 2
20321 20320 20322 20323 1 180.0000771 15.1670000 2
20321 20320 20322 20324 1 180.0000771 15.1670000 2
20318 20322 20320 20321 4 180.0000771 4.6024000 2
20315 20322 20324 20325 4 180.0000771 4.6024000 2
20320 20322 20324 20325 1 180.0000771 15.1670000 2
20323 20322 20324 20325 1 180.0000771 15.1670000 2
20315 20324 20322 20320 1 180.0000771 15.1670000 2
20315 20324 20322 20323 1 180.0000771 15.1670000 2
20320 20324 20322 20323 4 180.0000771 4.6024000 2
20326 20327 20328 20329 1 180.0000771 15.1670000 2
20326 20327 20328 20330 1 180.0000771 15.1670000 2
20329 20327 20328 20330 4 180.0000771 4.6024000 2
20326 20327 20336 20328 4 180.0000771 4.6024000 2
20326 20327 20336 20334 1 180.0000771 15.1670000 2
20326 20327 20336 20337 1 180.0000771 15.1670000 2
20328 20327 20336 20334 1 180.0000771 15.1670000 2
20328 20327 20336 20337 1 180.0000771 15.1670000 2
20329 20328 20327 20336 1 180.0000771 15.1670000 2
20330 20328 20327 20336 1 180.0000771 15.1670000 2
20327 20328 20330 20331 1 180.0000771 15.1670000 2
20327 20328 20330 20332 1 180.0000771 15.1670000 2
20329 20328 20330 20331 1 180.0000771 15.1670000 2
20329 20328 20330 20332 1 180.0000771 15.1670000 2
20328 20330 20332 20333 1 180.0000771 15.1670000 2
20328 20330 20332 20334 1 180.0000771 15.1670000 2
20331 20330 20332 20333 1 180.0000771 15.1670000 2
20331 20330 20332 20334 1 180.0000771 15.1670000 2
20328 20332 20330 20331 4 180.0000771 4.6024000 2
20330 20332 20334 20335 1 180.0000771 15.1670000 2
20330 20332 20334 20336 1 180.0000771 15.1670000 2
20333 20332 20334 20335 1 180.0000771 15.1670000 2
20333 20332 20334 20336 1 180.0000771 15.1670000 2
20330 20334 20332 20333 4 180.0000771 4.6024000 2
20327 20334 20336 20337 4 180.0000771 4.6024000 2
20332 20334 20336 20337 1 180.0000771 15.1670000 2
20335 20334 20336 20337 1 180.0000771 15.1670000 2
20327 20336 20334 20332 1 180.0000771 15.1670000 2
20327 20336 20334 20335 1 180.0000771 15.1670000 2
20332 20336 20334 20335 4 180.0000771 4.6024000 2
20338 20339 20340 20341 1 180.0000771 15.1670000 2
20338 20339 20340 20342 1 180.0000771 15.1670000 2
20341 20339 20340 20342 4 180.0000771 4.6024000 2
20338 20339 20348 20340 4 180.0000771 4.6024000 2
20338 20339 20348 20346 1 180.0000771 15.1670000 2
20338 20339 20348 20349 1 180.0000771 15.1670000 2
20340 20339 20348 20346 1 180.0000771 15.1670000 2
20340 20339 20348 20349 1 180.0000771 15.1670000 2
20341 20340 20339 20348 1 180.0000771 15.1670000 2
20342 20340 20339 20348 1 180.0000771 15.1670000 2
20339 20340 20342 20343 1 180.0000771 15.1670000 2
20339 20340 20342 20344 1 180.0000771 15.1670000 2
20341 20340 20342 20343 1 180.0000771 15.1670000 2
20341 20340 20342 20344 1 180.0000771 15.1670000 2
20340 20342 20344 20345 1 180.0000771 15.1670000 2
20340 20342 20344 20346 1 180.0000771 15.1670000 2
20343 20342 20344 20345 1 180.0000771 15.1670000 2
20343 20342 20344 20346 1 180.0000771 15.1670000 2
20340 20344 20342 20343 4 180.0000771 4.6024000 2
20342 20344 20346 20347 1 180.0000771 15.1670000 2
20342 20344 20346 20348 1 180.0000771 15.1670000 2
20345 20344 20346 20347 1 180.0000771 15.1670000 2
20345 20344 20346 20348 1 180.0000771 15.1670000 2
20342 20346 20344 20345 4 180.0000771 4.6024000 2
20339 20346 20348 20349 4 180.0000771 4.6024000 2
20344 20346 20348 20349 1 180.0000771 15.1670000 2
20347 20346 20348 20349 1 180.0000771 15.1670000 2
20339 20348 20346 20344 1 180.0000771 15.1670000 2
20339 20348 20346 20347 1 180.0000771 15.1670000 2
20344 20348 20346 20347 4 180.0000771 4.6024000 2
20350 20351 20352 20353 1 180.0000771 15.1670000 2
20350 20351 20352 20354 1 180.0000771 15.1670000 2
20353 20351 20352 20354 4 180.0000771 4.6024000 2
20350 20351 20360 20352 4 180.0000771 4.6024000 2
20350 20351 20360 20358 1 180.0000771 15.1670000 2
20350 20351 20360 20361 1 180.0000771 15.1670000 2
20352 20351 20360 20358 1 180.0000771 15.1670000 2
20352 20351 20360 20361 1 180.0000771 15.1670000 2
20353 20352 20351 20360 1 180.0000771 15.1670000 2
20354 20352 20351 20360 1 180.0000771 15.1670000 2
20351 20352 20354 20355 1 180.0000771 15.1670000 2
20351 20352 20354 20356 1 180.0000771 15.1670000 2
20353 20352 20354 20355 1 180.0000771 15.1670000 2
20353 20352 20354 20356 1 180.0000771 15.1670000 2
20352 20354 20356 20357 1 180.0000771 15.1670000 2
20352 20354 20356 20358 1 180.0000771 15.1670000 2
20355 20354 20356 20357 1 180.0000771 15.1670000 2
20355 20354 20356 20358 1 180.0000771 15.1670000 2
20352 20356 20354 20355 4 180.0000771 4.6024000 2
20354 20356 20358 20359 1 180.0000771 15.1670000 2
20354 20356 20358 20360 1 180.0000771 15.1670000 2
20357 20356 20358 20359 1 180.0000771 15.1670000 2
20357 20356 20358 20360 1 180.0000771 15.1670000 2
20354 20358 20356 20357 4 180.0000771 4.6024000 2
20351 20358 20360 20361 4 180.0000771 4.6024000 2
20356 20358 20360 20361 1 180.0000771 15.1670000 2
20359 20358 20360 20361 1 180.0000771 15.1670000 2
20351 20360 20358 20356 1 180.0000771 15.1670000 2
20351 20360 20358 20359 1 180.0000771 15.1670000 2
20356 20360 20358 20359 4 180.0000771 4.6024000 2
20362 20363 20364 20365 1 180.0000771 15.1670000 2
20362 20363 20364 20366 1 180.0000771 15.1670000 2
20365 20363 20364 20366 4 180.0000771 4.6024000 2
20362 20363 20372 20364 4 180.0000771 4.6024000 2
20362 20363 20372 20370 1 180.0000771 15.1670000 2
20362 20363 20372 20373 1 180.0000771 15.1670000 2
20364 20363 20372 20370 1 180.0000771 15.1670000 2
20364 20363 20372 20373 1 180.0000771 15.1670000 2
20365 20364 20363 20372 1 180.0000771 15.1670000 2
20366 20364 20363 20372 1 180.0000771 15.1670000 2
20363 20364 20366 20367 1 180.0000771 15.1670000 2
20363 20364 20366 20368 1 180.0000771 15.1670000 2
20365 20364 20366 20367 1 180.0000771 15.1670000 2
20365 20364 20366 20368 1 180.0000771 15.1670000 2
20364 20366 20368 20369 1 180.0000771 15.1670000 2
20364 20366 20368 20370 1 180.0000771 15.1670000 2
20367 20366 20368 20369 1 180.0000771 15.1670000 2
20367 20366 20368 20370 1 180.0000771 15.1670000 2
20364 20368 20366 20367 4 180.0000771 4.6024000 2
20366 20368 20370 20371 1 180.0000771 15.1670000 2
20366 20368 20370 20372 1 180.0000771 15.1670000 2
20369 20368 20370 20371 1 180.0000771 15.1670000 2
20369 20368 20370 20372 1 180.0000771 15.1670000 2
20366 20370 20368 20369 4 180.0000771 4.6024000 2
20363 20370 20372 20373 4 180.0000771 4.6024000 2
20368 20370 20372 20373 1 180.0000771 15.1670000 2
20371 20370 20372 20373 1 180.0000771 15.1670000 2
20363 20372 20370 20368 1 180.0000771 15.1670000 2
20363 20372 20370 20371 1 180.0000771 15.1670000 2
20368 20372 20370 20371 4 180.0000771 4.6024000 2
20374 20375 20376 20377 1 180.0000771 15.1670000 2
20374 20375 20376 20378 1 180.0000771 15.1670000 2
20377 20375 20376 20378 4 180.0000771 4.6024000 2
20374 20375 20384 20376 4 180.0000771 4.6024000 2
20374 20375 20384 20382 1 180.0000771 15.1670000 2
20374 20375 20384 20385 1 180.0000771 15.1670000 2
20376 20375 20384 20382 1 180.0000771 15.1670000 2
20376 20375 20384 20385 1 180.0000771 15.1670000 2
20377 20376 20375 20384 1 180.0000771 15.1670000 2
20378 20376 20375 20384 1 180.0000771 15.1670000 2
20375 20376 20378 20379 1 180.0000771 15.1670000 2
20375 20376 20378 20380 1 180.0000771 15.1670000 2
20377 20376 20378 20379 1 180.0000771 15.1670000 2
20377 20376 20378 20380 1 180.0000771 15.1670000 2
20376 20378 20380 20381 1 180.0000771 15.1670000 2
20376 20378 20380 20382 1 180.0000771 15.1670000 2
20379 20378 20380 20381 1 180.0000771 15.1670000 2
20379 20378 20380 20382 1 180.0000771 15.1670000 2
20376 20380 20378 20379 4 180.0000771 4.6024000 2
20378 20380 20382 20383 1 180.0000771 15.1670000 2
20378 20380 20382 20384 1 180.0000771 15.1670000 2
20381 20380 20382 20383 1 180.0000771 15.1670000 2
20381 20380 20382 20384 1 180.0000771 15.1670000 2
20378 20382 20380 20381 4 180.0000771 4.6024000 2
20375 20382 20384 20385 4 180.0000771 4.6024000 2
20380 20382 20384 20385 1 180.0000771 15.1670000 2
20383 20382 20384 20385 1 180.0000771 15.1670000 2
20375 20384 20382 20380 1 180.0000771 15.1670000 2
20375 20384 20382 20383 1 180.0000771 15.1670000 2
20380 20384 20382 20383 4 180.0000771 4.6024000 2
20386 20387 20388 20389 1 180.0000771 15.1670000 2
20386 20387 20388 20390 1 180.0000771 15.1670000 2
20389 20387 20388 20390 4 180.0000771 4.6024000 2
20386 20387 20396 20388 4 180.0000771 4.6024000 2
20386 20387 20396 20394 1 180.0000771 15.1670000 2
20386 20387 20396 20397 1 180.0000771 15.1670000 2
20388 20387 20396 20394 1 180.0000771 15.1670000 2
20388 20387 20396 20397 1 180.0000771 15.1670000 2
20389 20388 20387 20396 1 180.0000771 15.1670000 2
20390 20388 20387 20396 1 180.0000771 15.1670000 2
20387 20388 20390 20391 1 180.0000771 15.1670000 2
20387 20388 20390 20392 1 180.0000771 15.1670000 2
20389 20388 20390 20391 1 180.0000771 15.1670000 2
20389 20388 20390 20392 1 180.0000771 15.1670000 2
20388 20390 20392 20393 1 180.0000771 15.1670000 2
20388 20390 20392 20394 1 180.0000771 15.1670000 2
20391 20390 20392 20393 1 180.0000771 15.1670000 2
20391 20390 20392 20394 1 180.0000771 15.1670000 2
20388 20392 20390 20391 4 180.0000771 4.6024000 2
20390 20392 20394 20395 1 180.0000771 15.1670000 2
20390 20392 20394 20396 1 180.0000771 15.1670000 2
20393 20392 20394 20395 1 180.0000771 15.1670000 2
20393 20392 20394 20396 1 180.0000771 15.1670000 2
20390 20394 20392 20393 4 180.0000771 4.6024000 2
20387 20394 20396 20397 4 180.0000771 4.6024000 2
20392 20394 20396 20397 1 180.0000771 15.1670000 2
20395 20394 20396 20397 1 180.0000771 15.1670000 2
20387 20396 20394 20392 1 180.0000771 15.1670000 2
20387 20396 20394 20395 1 180.0000771 15.1670000 2
20392 20396 20394 20395 4 180.0000771 4.6024000 2
20398 20399 20400 20401 1 180.0000771 15.1670000 2
20398 20399 20400 20402 1 180.0000771 15.1670000 2
20401 20399 20400 20402 4 180.0000771 4.6024000 2
20398 20399 20408 20400 4 180.0000771 4.6024000 2
20398 20399 20408 20406 1 180.0000771 15.1670000 2
20398 20399 20408 20409 1 180.0000771 15.1670000 2
20400 20399 20408 20406 1 180.0000771 15.1670000 2
20400 20399 20408 20409 1 180.0000771 15.1670000 2
20401 20400 20399 20408 1 180.0000771 15.1670000 2
20402 20400 20399 20408 1 180.0000771 15.1670000 2
20399 20400 20402 20403 1 180.0000771 15.1670000 2
20399 20400 20402 20404 1 180.0000771 15.1670000 2
20401 20400 20402 20403 1 180.0000771 15.1670000 2
20401 20400 20402 20404 1 180.0000771 15.1670000 2
20400 20402 20404 20405 1 180.0000771 15.1670000 2
20400 20402 20404 20406 1 180.0000771 15.1670000 2
20403 20402 20404 20405 1 180.0000771 15.1670000 2
20403 20402 20404 20406 1 180.0000771 15.1670000 2
20400 20404 20402 20403 4 180.0000771 4.6024000 2
20402 20404 20406 20407 1 180.0000771 15.1670000 2
20402 20404 20406 20408 1 180.0000771 15.1670000 2
20405 20404 20406 20407 1 180.0000771 15.1670000 2
20405 20404 20406 20408 1 180.0000771 15.1670000 2
20402 20406 20404 20405 4 180.0000771 4.6024000 2
20399 20406 20408 20409 4 180.0000771 4.6024000 2
20404 20406 20408 20409 1 180.0000771 15.1670000 2
20407 20406 20408 20409 1 180.0000771 15.1670000 2
20399 20408 20406 20404 1 180.0000771 15.1670000 2
20399 20408 20406 20407 1 180.0000771 15.1670000 2
20404 20408 20406 20407 4 180.0000771 4.6024000 2
20410 20411 20412 20413 1 180.0000771 15.1670000 2
20410 20411 20412 20414 1 180.0000771 15.1670000 2
20413 20411 20412 20414 4 180.0000771 4.6024000 2
20410 20411 20420 20412 4 180.0000771 4.6024000 2
20410 20411 20420 20418 1 180.0000771 15.1670000 2
20410 20411 20420 20421 1 180.0000771 15.1670000 2
20412 20411 20420 20418 1 180.0000771 15.1670000 2
20412 20411 20420 20421 1 180.0000771 15.1670000 2
20413 20412 20411 20420 1 180.0000771 15.1670000 2
20414 20412 20411 20420 1 180.0000771 15.1670000 2
20411 20412 20414 20415 1 180.0000771 15.1670000 2
20411 20412 20414 20416 1 180.0000771 15.1670000 2
20413 20412 20414 20415 1 180.0000771 15.1670000 2
20413 20412 20414 20416 1 180.0000771 15.1670000 2
20412 20414 20416 20417 1 180.0000771 15.1670000 2
20412 20414 20416 20418 1 180.0000771 15.1670000 2
20415 20414 20416 20417 1 180.0000771 15.1670000 2
20415 20414 20416 20418 1 180.0000771 15.1670000 2
20412 20416 20414 20415 4 180.0000771 4.6024000 2
20414 20416 20418 20419 1 180.0000771 15.1670000 2
20414 20416 20418 20420 1 180.0000771 15.1670000 2
20417 20416 20418 20419 1 180.0000771 15.1670000 2
20417 20416 20418 20420 1 180.0000771 15.1670000 2
20414 20418 20416 20417 4 180.0000771 4.6024000 2
20411 20418 20420 20421 4 180.0000771 4.6024000 2
20416 20418 20420 20421 1 180.0000771 15.1670000 2
20419 20418 20420 20421 1 180.0000771 15.1670000 2
20411 20420 20418 20416 1 180.0000771 15.1670000 2
20411 20420 20418 20419 1 180.0000771 15.1670000 2
20416 20420 20418 20419 4 180.0000771 4.6024000 2
20422 20423 20424 20425 1 180.0000771 15.1670000 2
20422 20423 20424 20426 1 180.0000771 15.1670000 2
20425 20423 20424 20426 4 180.0000771 4.6024000 2
20422 20423 20432 20424 4 180.0000771 4.6024000 2
20422 20423 20432 20430 1 180.0000771 15.1670000 2
20422 20423 20432 20433 1 180.0000771 15.1670000 2
20424 20423 20432 20430 1 180.0000771 15.1670000 2
20424 20423 20432 20433 1 180.0000771 15.1670000 2
20425 20424 20423 20432 1 180.0000771 15.1670000 2
20426 20424 20423 20432 1 180.0000771 15.1670000 2
20423 20424 20426 20427 1 180.0000771 15.1670000 2
20423 20424 20426 20428 1 180.0000771 15.1670000 2
20425 20424 20426 20427 1 180.0000771 15.1670000 2
20425 20424 20426 20428 1 180.0000771 15.1670000 2
20424 20426 20428 20429 1 180.0000771 15.1670000 2
20424 20426 20428 20430 1 180.0000771 15.1670000 2
20427 20426 20428 20429 1 180.0000771 15.1670000 2
20427 20426 20428 20430 1 180.0000771 15.1670000 2
20424 20428 20426 20427 4 180.0000771 4.6024000 2
20426 20428 20430 20431 1 180.0000771 15.1670000 2
20426 20428 20430 20432 1 180.0000771 15.1670000 2
20429 20428 20430 20431 1 180.0000771 15.1670000 2
20429 20428 20430 20432 1 180.0000771 15.1670000 2
20426 20430 20428 20429 4 180.0000771 4.6024000 2
20423 20430 20432 20433 4 180.0000771 4.6024000 2
20428 20430 20432 20433 1 180.0000771 15.1670000 2
20431 20430 20432 20433 1 180.0000771 15.1670000 2
20423 20432 20430 20428 1 180.0000771 15.1670000 2
20423 20432 20430 20431 1 180.0000771 15.1670000 2
20428 20432 20430 20431 4 180.0000771 4.6024000 2
20434 20435 20436 20437 1 180.0000771 15.1670000 2
20434 20435 20436 20438 1 180.0000771 15.1670000 2
20437 20435 20436 20438 4 180.0000771 4.6024000 2
20434 20435 20444 20436 4 180.0000771 4.6024000 2
20434 20435 20444 20442 1 180.0000771 15.1670000 2
20434 20435 20444 20445 1 180.0000771 15.1670000 2
20436 20435 20444 20442 1 180.0000771 15.1670000 2
20436 20435 20444 20445 1 180.0000771 15.1670000 2
20437 20436 20435 20444 1 180.0000771 15.1670000 2
20438 20436 20435 20444 1 180.0000771 15.1670000 2
20435 20436 20438 20439 1 180.0000771 15.1670000 2
20435 20436 20438 20440 1 180.0000771 15.1670000 2
20437 20436 20438 20439 1 180.0000771 15.1670000 2
20437 20436 20438 20440 1 180.0000771 15.1670000 2
20436 20438 20440 20441 1 180.0000771 15.1670000 2
20436 20438 20440 20442 1 180.0000771 15.1670000 2
20439 20438 20440 20441 1 180.0000771 15.1670000 2
20439 20438 20440 20442 1 180.0000771 15.1670000 2
20436 20440 20438 20439 4 180.0000771 4.6024000 2
20438 20440 20442 20443 1 180.0000771 15.1670000 2
20438 20440 20442 20444 1 180.0000771 15.1670000 2
20441 20440 20442 20443 1 180.0000771 15.1670000 2
20441 20440 20442 20444 1 180.0000771 15.1670000 2
20438 20442 20440 20441 4 180.0000771 4.6024000 2
20435 20442 20444 20445 4 180.0000771 4.6024000 2
20440 20442 20444 20445 1 180.0000771 15.1670000 2
20443 20442 20444 20445 1 180.0000771 15.1670000 2
20435 20444 20442 20440 1 180.0000771 15.1670000 2
20435 20444 20442 20443 1 180.0000771 15.1670000 2
20440 20444 20442 20443 4 180.0000771 4.6024000 2
20446 20447 20448 20449 1 180.0000771 15.1670000 2
20446 20447 20448 20450 1 180.0000771 15.1670000 2
20449 20447 20448 20450 4 180.0000771 4.6024000 2
20446 20447 20456 20448 4 180.0000771 4.6024000 2
20446 20447 20456 20454 1 180.0000771 15.1670000 2
20446 20447 20456 20457 1 180.0000771 15.1670000 2
20448 20447 20456 20454 1 180.0000771 15.1670000 2
20448 20447 20456 20457 1 180.0000771 15.1670000 2
20449 20448 20447 20456 1 180.0000771 15.1670000 2
20450 20448 20447 20456 1 180.0000771 15.1670000 2
20447 20448 20450 20451 1 180.0000771 15.1670000 2
20447 20448 20450 20452 1 180.0000771 15.1670000 2
20449 20448 20450 20451 1 180.0000771 15.1670000 2
20449 20448 20450 20452 1 180.0000771 15.1670000 2
20448 20450 20452 20453 1 180.0000771 15.1670000 2
20448 20450 20452 20454 1 180.0000771 15.1670000 2
20451 20450 20452 20453 1 180.0000771 15.1670000 2
20451 20450 20452 20454 1 180.0000771 15.1670000 2
20448 20452 20450 20451 4 180.0000771 4.6024000 2
20450 20452 20454 20455 1 180.0000771 15.1670000 2
20450 20452 20454 20456 1 180.0000771 15.1670000 2
20453 20452 20454 20455 1 180.0000771 15.1670000 2
20453 20452 20454 20456 1 180.0000771 15.1670000 2
20450 20454 20452 20453 4 180.0000771 4.6024000 2
20447 20454 20456 20457 4 180.0000771 4.6024000 2
20452 20454 20456 20457 1 180.0000771 15.1670000 2
20455 20454 20456 20457 1 180.0000771 15.1670000 2
20447 20456 20454 20452 1 180.0000771 15.1670000 2
20447 20456 20454 20455 1 180.0000771 15.1670000 2
20452 20456 20454 20455 4 180.0000771 4.6024000 2
20458 20459 20460 20461 1 180.0000771 15.1670000 2
20458 20459 20460 20462 1 180.0000771 15.1670000 2
20461 20459 20460 20462 4 180.0000771 4.6024000 2
20458 20459 20468 20460 4 180.0000771 4.6024000 2
20458 20459 20468 20466 1 180.0000771 15.1670000 2
20458 20459 20468 20469 1 180.0000771 15.1670000 2
20460 20459 20468 20466 1 180.0000771 15.1670000 2
20460 20459 20468 20469 1 180.0000771 15.1670000 2
20461 20460 20459 20468 1 180.0000771 15.1670000 2
20462 20460 20459 20468 1 180.0000771 15.1670000 2
20459 20460 20462 20463 1 180.0000771 15.1670000 2
20459 20460 20462 20464 1 180.0000771 15.1670000 2
20461 20460 20462 20463 1 180.0000771 15.1670000 2
20461 20460 20462 20464 1 180.0000771 15.1670000 2
20460 20462 20464 20465 1 180.0000771 15.1670000 2
20460 20462 20464 20466 1 180.0000771 15.1670000 2
20463 20462 20464 20465 1 180.0000771 15.1670000 2
20463 20462 20464 20466 1 180.0000771 15.1670000 2
20460 20464 20462 20463 4 180.0000771 4.6024000 2
20462 20464 20466 20467 1 180.0000771 15.1670000 2
20462 20464 20466 20468 1 180.0000771 15.1670000 2
20465 20464 20466 20467 1 180.0000771 15.1670000 2
20465 20464 20466 20468 1 180.0000771 15.1670000 2
20462 20466 20464 20465 4 180.0000771 4.6024000 2
20459 20466 20468 20469 4 180.0000771 4.6024000 2
20464 20466 20468 20469 1 180.0000771 15.1670000 2
20467 20466 20468 20469 1 180.0000771 15.1670000 2
20459 20468 20466 20464 1 180.0000771 15.1670000 2
20459 20468 20466 20467 1 180.0000771 15.1670000 2
20464 20468 20466 20467 4 180.0000771 4.6024000 2
20470 20471 20472 20473 1 180.0000771 15.1670000 2
20470 20471 20472 20474 1 180.0000771 15.1670000 2
20473 20471 20472 20474 4 180.0000771 4.6024000 2
20470 20471 20480 20472 4 180.0000771 4.6024000 2
20470 20471 20480 20478 1 180.0000771 15.1670000 2
20470 20471 20480 20481 1 180.0000771 15.1670000 2
20472 20471 20480 20478 1 180.0000771 15.1670000 2
20472 20471 20480 20481 1 180.0000771 15.1670000 2
20473 20472 20471 20480 1 180.0000771 15.1670000 2
20474 20472 20471 20480 1 180.0000771 15.1670000 2
20471 20472 20474 20475 1 180.0000771 15.1670000 2
20471 20472 20474 20476 1 180.0000771 15.1670000 2
20473 20472 20474 20475 1 180.0000771 15.1670000 2
20473 20472 20474 20476 1 180.0000771 15.1670000 2
20472 20474 20476 20477 1 180.0000771 15.1670000 2
20472 20474 20476 20478 1 180.0000771 15.1670000 2
20475 20474 20476 20477 1 180.0000771 15.1670000 2
20475 20474 20476 20478 1 180.0000771 15.1670000 2
20472 20476 20474 20475 4 180.0000771 4.6024000 2
20474 20476 20478 20479 1 180.0000771 15.1670000 2
20474 20476 20478 20480 1 180.0000771 15.1670000 2
20477 20476 20478 20479 1 180.0000771 15.1670000 2
20477 20476 20478 20480 1 180.0000771 15.1670000 2
20474 20478 20476 20477 4 180.0000771 4.6024000 2
20471 20478 20480 20481 4 180.0000771 4.6024000 2
20476 20478 20480 20481 1 180.0000771 15.1670000 2
20479 20478 20480 20481 1 180.0000771 15.1670000 2
20471 20480 20478 20476 1 180.0000771 15.1670000 2
20471 20480 20478 20479 1 180.0000771 15.1670000 2
20476 20480 20478 20479 4 180.0000771 4.6024000 2
20482 20483 20484 20485 1 180.0000771 15.1670000 2
20482 20483 20484 20486 1 180.0000771 15.1670000 2
20485 20483 20484 20486 4 180.0000771 4.6024000 2
20482 20483 20492 20484 4 180.0000771 4.6024000 2
20482 20483 20492 20490 1 180.0000771 15.1670000 2
20482 20483 20492 20493 1 180.0000771 15.1670000 2
20484 20483 20492 20490 1 180.0000771 15.1670000 2
20484 20483 20492 20493 1 180.0000771 15.1670000 2
20485 20484 20483 20492 1 180.0000771 15.1670000 2
20486 20484 20483 20492 1 180.0000771 15.1670000 2
20483 20484 20486 20487 1 180.0000771 15.1670000 2
20483 20484 20486 20488 1 180.0000771 15.1670000 2
20485 20484 20486 20487 1 180.0000771 15.1670000 2
20485 20484 20486 20488 1 180.0000771 15.1670000 2
20484 20486 20488 20489 1 180.0000771 15.1670000 2
20484 20486 20488 20490 1 180.0000771 15.1670000 2
20487 20486 20488 20489 1 180.0000771 15.1670000 2
20487 20486 20488 20490 1 180.0000771 15.1670000 2
20484 20488 20486 20487 4 180.0000771 4.6024000 2
20486 20488 20490 20491 1 180.0000771 15.1670000 2
20486 20488 20490 20492 1 180.0000771 15.1670000 2
20489 20488 20490 20491 1 180.0000771 15.1670000 2
20489 20488 20490 20492 1 180.0000771 15.1670000 2
20486 20490 20488 20489 4 180.0000771 4.6024000 2
20483 20490 20492 20493 4 180.0000771 4.6024000 2
20488 20490 20492 20493 1 180.0000771 15.1670000 2
20491 20490 20492 20493 1 180.0000771 15.1670000 2
20483 20492 20490 20488 1 180.0000771 15.1670000 2
20483 20492 20490 20491 1 180.0000771 15.1670000 2
20488 20492 20490 20491 4 180.0000771 4.6024000 2
20494 20495 20496 20497 1 180.0000771 15.1670000 2
20494 20495 20496 20498 1 180.0000771 15.1670000 2
20497 20495 20496 20498 4 180.0000771 4.6024000 2
20494 20495 20504 20496 4 180.0000771 4.6024000 2
20494 20495 20504 20502 1 180.0000771 15.1670000 2
20494 20495 20504 20505 1 180.0000771 15.1670000 2
20496 20495 20504 20502 1 180.0000771 15.1670000 2
20496 20495 20504 20505 1 180.0000771 15.1670000 2
20497 20496 20495 20504 1 180.0000771 15.1670000 2
20498 20496 20495 20504 1 180.0000771 15.1670000 2
20495 20496 20498 20499 1 180.0000771 15.1670000 2
20495 20496 20498 20500 1 180.0000771 15.1670000 2
20497 20496 20498 20499 1 180.0000771 15.1670000 2
20497 20496 20498 20500 1 180.0000771 15.1670000 2
20496 20498 20500 20501 1 180.0000771 15.1670000 2
20496 20498 20500 20502 1 180.0000771 15.1670000 2
20499 20498 20500 20501 1 180.0000771 15.1670000 2
20499 20498 20500 20502 1 180.0000771 15.1670000 2
20496 20500 20498 20499 4 180.0000771 4.6024000 2
20498 20500 20502 20503 1 180.0000771 15.1670000 2
20498 20500 20502 20504 1 180.0000771 15.1670000 2
20501 20500 20502 20503 1 180.0000771 15.1670000 2
20501 20500 20502 20504 1 180.0000771 15.1670000 2
20498 20502 20500 20501 4 180.0000771 4.6024000 2
20495 20502 20504 20505 4 180.0000771 4.6024000 2
20500 20502 20504 20505 1 180.0000771 15.1670000 2
20503 20502 20504 20505 1 180.0000771 15.1670000 2
20495 20504 20502 20500 1 180.0000771 15.1670000 2
20495 20504 20502 20503 1 180.0000771 15.1670000 2
20500 20504 20502 20503 4 180.0000771 4.6024000 2
20506 20507 20508 20509 1 180.0000771 15.1670000 2
20506 20507 20508 20510 1 180.0000771 15.1670000 2
20509 20507 20508 20510 4 180.0000771 4.6024000 2
20506 20507 20516 20508 4 180.0000771 4.6024000 2
20506 20507 20516 20514 1 180.0000771 15.1670000 2
20506 20507 20516 20517 1 180.0000771 15.1670000 2
20508 20507 20516 20514 1 180.0000771 15.1670000 2
20508 20507 20516 20517 1 180.0000771 15.1670000 2
20509 20508 20507 20516 1 180.0000771 15.1670000 2
20510 20508 20507 20516 1 180.0000771 15.1670000 2
20507 20508 20510 20511 1 180.0000771 15.1670000 2
20507 20508 20510 20512 1 180.0000771 15.1670000 2
20509 20508 20510 20511 1 180.0000771 15.1670000 2
20509 20508 20510 20512 1 180.0000771 15.1670000 2
20508 20510 20512 20513 1 180.0000771 15.1670000 2
20508 20510 20512 20514 1 180.0000771 15.1670000 2
20511 20510 20512 20513 1 180.0000771 15.1670000 2
20511 20510 20512 20514 1 180.0000771 15.1670000 2
20508 20512 20510 20511 4 180.0000771 4.6024000 2
20510 20512 20514 20515 1 180.0000771 15.1670000 2
20510 20512 20514 20516 1 180.0000771 15.1670000 2
20513 20512 20514 20515 1 180.0000771 15.1670000 2
20513 20512 20514 20516 1 180.0000771 15.1670000 2
20510 20514 20512 20513 4 180.0000771 4.6024000 2
20507 20514 20516 20517 4 180.0000771 4.6024000 2
20512 20514 20516 20517 1 180.0000771 15.1670000 2
20515 20514 20516 20517 1 180.0000771 15.1670000 2
20507 20516 20514 20512 1 180.0000771 15.1670000 2
20507 20516 20514 20515 1 180.0000771 15.1670000 2
20512 20516 20514 20515 4 180.0000771 4.6024000 2
20518 20519 20520 20521 1 180.0000771 15.1670000 2
20518 20519 20520 20522 1 180.0000771 15.1670000 2
20521 20519 20520 20522 4 180.0000771 4.6024000 2
20518 20519 20528 20520 4 180.0000771 4.6024000 2
20518 20519 20528 20526 1 180.0000771 15.1670000 2
20518 20519 20528 20529 1 180.0000771 15.1670000 2
20520 20519 20528 20526 1 180.0000771 15.1670000 2
20520 20519 20528 20529 1 180.0000771 15.1670000 2
20521 20520 20519 20528 1 180.0000771 15.1670000 2
20522 20520 20519 20528 1 180.0000771 15.1670000 2
20519 20520 20522 20523 1 180.0000771 15.1670000 2
20519 20520 20522 20524 1 180.0000771 15.1670000 2
20521 20520 20522 20523 1 180.0000771 15.1670000 2
20521 20520 20522 20524 1 180.0000771 15.1670000 2
20520 20522 20524 20525 1 180.0000771 15.1670000 2
20520 20522 20524 20526 1 180.0000771 15.1670000 2
20523 20522 20524 20525 1 180.0000771 15.1670000 2
20523 20522 20524 20526 1 180.0000771 15.1670000 2
20520 20524 20522 20523 4 180.0000771 4.6024000 2
20522 20524 20526 20527 1 180.0000771 15.1670000 2
20522 20524 20526 20528 1 180.0000771 15.1670000 2
20525 20524 20526 20527 1 180.0000771 15.1670000 2
20525 20524 20526 20528 1 180.0000771 15.1670000 2
20522 20526 20524 20525 4 180.0000771 4.6024000 2
20519 20526 20528 20529 4 180.0000771 4.6024000 2
20524 20526 20528 20529 1 180.0000771 15.1670000 2
20527 20526 20528 20529 1 180.0000771 15.1670000 2
20519 20528 20526 20524 1 180.0000771 15.1670000 2
20519 20528 20526 20527 1 180.0000771 15.1670000 2
20524 20528 20526 20527 4 180.0000771 4.6024000 2
20530 20531 20532 20533 1 180.0000771 15.1670000 2
20530 20531 20532 20534 1 180.0000771 15.1670000 2
20533 20531 20532 20534 4 180.0000771 4.6024000 2
20530 20531 20540 20532 4 180.0000771 4.6024000 2
20530 20531 20540 20538 1 180.0000771 15.1670000 2
20530 20531 20540 20541 1 180.0000771 15.1670000 2
20532 20531 20540 20538 1 180.0000771 15.1670000 2
20532 20531 20540 20541 1 180.0000771 15.1670000 2
20533 20532 20531 20540 1 180.0000771 15.1670000 2
20534 20532 20531 20540 1 180.0000771 15.1670000 2
20531 20532 20534 20535 1 180.0000771 15.1670000 2
20531 20532 20534 20536 1 180.0000771 15.1670000 2
20533 20532 20534 20535 1 180.0000771 15.1670000 2
20533 20532 20534 20536 1 180.0000771 15.1670000 2
20532 20534 20536 20537 1 180.0000771 15.1670000 2
20532 20534 20536 20538 1 180.0000771 15.1670000 2
20535 20534 20536 20537 1 180.0000771 15.1670000 2
20535 20534 20536 20538 1 180.0000771 15.1670000 2
20532 20536 20534 20535 4 180.0000771 4.6024000 2
20534 20536 20538 20539 1 180.0000771 15.1670000 2
20534 20536 20538 20540 1 180.0000771 15.1670000 2
20537 20536 20538 20539 1 180.0000771 15.1670000 2
20537 20536 20538 20540 1 180.0000771 15.1670000 2
20534 20538 20536 20537 4 180.0000771 4.6024000 2
20531 20538 20540 20541 4 180.0000771 4.6024000 2
20536 20538 20540 20541 1 180.0000771 15.1670000 2
20539 20538 20540 20541 1 180.0000771 15.1670000 2
20531 20540 20538 20536 1 180.0000771 15.1670000 2
20531 20540 20538 20539 1 180.0000771 15.1670000 2
20536 20540 20538 20539 4 180.0000771 4.6024000 2
20542 20543 20544 20545 1 180.0000771 15.1670000 2
20542 20543 20544 20546 1 180.0000771 15.1670000 2
20545 20543 20544 20546 4 180.0000771 4.6024000 2
20542 20543 20552 20544 4 180.0000771 4.6024000 2
20542 20543 20552 20550 1 180.0000771 15.1670000 2
20542 20543 20552 20553 1 180.0000771 15.1670000 2
20544 20543 20552 20550 1 180.0000771 15.1670000 2
20544 20543 20552 20553 1 180.0000771 15.1670000 2
20545 20544 20543 20552 1 180.0000771 15.1670000 2
20546 20544 20543 20552 1 180.0000771 15.1670000 2
20543 20544 20546 20547 1 180.0000771 15.1670000 2
20543 20544 20546 20548 1 180.0000771 15.1670000 2
20545 20544 20546 20547 1 180.0000771 15.1670000 2
20545 20544 20546 20548 1 180.0000771 15.1670000 2
20544 20546 20548 20549 1 180.0000771 15.1670000 2
20544 20546 20548 20550 1 180.0000771 15.1670000 2
20547 20546 20548 20549 1 180.0000771 15.1670000 2
20547 20546 20548 20550 1 180.0000771 15.1670000 2
20544 20548 20546 20547 4 180.0000771 4.6024000 2
20546 20548 20550 20551 1 180.0000771 15.1670000 2
20546 20548 20550 20552 1 180.0000771 15.1670000 2
20549 20548 20550 20551 1 180.0000771 15.1670000 2
20549 20548 20550 20552 1 180.0000771 15.1670000 2
20546 20550 20548 20549 4 180.0000771 4.6024000 2
20543 20550 20552 20553 4 180.0000771 4.6024000 2
20548 20550 20552 20553 1 180.0000771 15.1670000 2
20551 20550 20552 20553 1 180.0000771 15.1670000 2
20543 20552 20550 20548 1 180.0000771 15.1670000 2
20543 20552 20550 20551 1 180.0000771 15.1670000 2
20548 20552 20550 20551 4 180.0000771 4.6024000 2
20554 20555 20556 20557 1 180.0000771 15.1670000 2
20554 20555 20556 20558 1 180.0000771 15.1670000 2
20557 20555 20556 20558 4 180.0000771 4.6024000 2
20554 20555 20564 20556 4 180.0000771 4.6024000 2
20554 20555 20564 20562 1 180.0000771 15.1670000 2
20554 20555 20564 20565 1 180.0000771 15.1670000 2
20556 20555 20564 20562 1 180.0000771 15.1670000 2
20556 20555 20564 20565 1 180.0000771 15.1670000 2
20557 20556 20555 20564 1 180.0000771 15.1670000 2
20558 20556 20555 20564 1 180.0000771 15.1670000 2
20555 20556 20558 20559 1 180.0000771 15.1670000 2
20555 20556 20558 20560 1 180.0000771 15.1670000 2
20557 20556 20558 20559 1 180.0000771 15.1670000 2
20557 20556 20558 20560 1 180.0000771 15.1670000 2
20556 20558 20560 20561 1 180.0000771 15.1670000 2
20556 20558 20560 20562 1 180.0000771 15.1670000 2
20559 20558 20560 20561 1 180.0000771 15.1670000 2
20559 20558 20560 20562 1 180.0000771 15.1670000 2
20556 20560 20558 20559 4 180.0000771 4.6024000 2
20558 20560 20562 20563 1 180.0000771 15.1670000 2
20558 20560 20562 20564 1 180.0000771 15.1670000 2
20561 20560 20562 20563 1 180.0000771 15.1670000 2
20561 20560 20562 20564 1 180.0000771 15.1670000 2
20558 20562 20560 20561 4 180.0000771 4.6024000 2
20555 20562 20564 20565 4 180.0000771 4.6024000 2
20560 20562 20564 20565 1 180.0000771 15.1670000 2
20563 20562 20564 20565 1 180.0000771 15.1670000 2
20555 20564 20562 20560 1 180.0000771 15.1670000 2
20555 20564 20562 20563 1 180.0000771 15.1670000 2
20560 20564 20562 20563 4 180.0000771 4.6024000 2
20566 20567 20568 20569 1 180.0000771 15.1670000 2
20566 20567 20568 20570 1 180.0000771 15.1670000 2
20569 20567 20568 20570 4 180.0000771 4.6024000 2
20566 20567 20576 20568 4 180.0000771 4.6024000 2
20566 20567 20576 20574 1 180.0000771 15.1670000 2
20566 20567 20576 20577 1 180.0000771 15.1670000 2
20568 20567 20576 20574 1 180.0000771 15.1670000 2
20568 20567 20576 20577 1 180.0000771 15.1670000 2
20569 20568 20567 20576 1 180.0000771 15.1670000 2
20570 20568 20567 20576 1 180.0000771 15.1670000 2
20567 20568 20570 20571 1 180.0000771 15.1670000 2
20567 20568 20570 20572 1 180.0000771 15.1670000 2
20569 20568 20570 20571 1 180.0000771 15.1670000 2
20569 20568 20570 20572 1 180.0000771 15.1670000 2
20568 20570 20572 20573 1 180.0000771 15.1670000 2
20568 20570 20572 20574 1 180.0000771 15.1670000 2
20571 20570 20572 20573 1 180.0000771 15.1670000 2
20571 20570 20572 20574 1 180.0000771 15.1670000 2
20568 20572 20570 20571 4 180.0000771 4.6024000 2
20570 20572 20574 20575 1 180.0000771 15.1670000 2
20570 20572 20574 20576 1 180.0000771 15.1670000 2
20573 20572 20574 20575 1 180.0000771 15.1670000 2
20573 20572 20574 20576 1 180.0000771 15.1670000 2
20570 20574 20572 20573 4 180.0000771 4.6024000 2
20567 20574 20576 20577 4 180.0000771 4.6024000 2
20572 20574 20576 20577 1 180.0000771 15.1670000 2
20575 20574 20576 20577 1 180.0000771 15.1670000 2
20567 20576 20574 20572 1 180.0000771 15.1670000 2
20567 20576 20574 20575 1 180.0000771 15.1670000 2
20572 20576 20574 20575 4 180.0000771 4.6024000 2
20578 20579 20580 20581 1 180.0000771 15.1670000 2
20578 20579 20580 20582 1 180.0000771 15.1670000 2
20581 20579 20580 20582 4 180.0000771 4.6024000 2
20578 20579 20588 20580 4 180.0000771 4.6024000 2
20578 20579 20588 20586 1 180.0000771 15.1670000 2
20578 20579 20588 20589 1 180.0000771 15.1670000 2
20580 20579 20588 20586 1 180.0000771 15.1670000 2
20580 20579 20588 20589 1 180.0000771 15.1670000 2
20581 20580 20579 20588 1 180.0000771 15.1670000 2
20582 20580 20579 20588 1 180.0000771 15.1670000 2
20579 20580 20582 20583 1 180.0000771 15.1670000 2
20579 20580 20582 20584 1 180.0000771 15.1670000 2
20581 20580 20582 20583 1 180.0000771 15.1670000 2
20581 20580 20582 20584 1 180.0000771 15.1670000 2
20580 20582 20584 20585 1 180.0000771 15.1670000 2
20580 20582 20584 20586 1 180.0000771 15.1670000 2
20583 20582 20584 20585 1 180.0000771 15.1670000 2
20583 20582 20584 20586 1 180.0000771 15.1670000 2
20580 20584 20582 20583 4 180.0000771 4.6024000 2
20582 20584 20586 20587 1 180.0000771 15.1670000 2
20582 20584 20586 20588 1 180.0000771 15.1670000 2
20585 20584 20586 20587 1 180.0000771 15.1670000 2
20585 20584 20586 20588 1 180.0000771 15.1670000 2
20582 20586 20584 20585 4 180.0000771 4.6024000 2
20579 20586 20588 20589 4 180.0000771 4.6024000 2
20584 20586 20588 20589 1 180.0000771 15.1670000 2
20587 20586 20588 20589 1 180.0000771 15.1670000 2
20579 20588 20586 20584 1 180.0000771 15.1670000 2
20579 20588 20586 20587 1 180.0000771 15.1670000 2
20584 20588 20586 20587 4 180.0000771 4.6024000 2
20590 20591 20592 20593 1 180.0000771 15.1670000 2
20590 20591 20592 20594 1 180.0000771 15.1670000 2
20593 20591 20592 20594 4 180.0000771 4.6024000 2
20590 20591 20600 20592 4 180.0000771 4.6024000 2
20590 20591 20600 20598 1 180.0000771 15.1670000 2
20590 20591 20600 20601 1 180.0000771 15.1670000 2
20592 20591 20600 20598 1 180.0000771 15.1670000 2
20592 20591 20600 20601 1 180.0000771 15.1670000 2
20593 20592 20591 20600 1 180.0000771 15.1670000 2
20594 20592 20591 20600 1 180.0000771 15.1670000 2
20591 20592 20594 20595 1 180.0000771 15.1670000 2
20591 20592 20594 20596 1 180.0000771 15.1670000 2
20593 20592 20594 20595 1 180.0000771 15.1670000 2
20593 20592 20594 20596 1 180.0000771 15.1670000 2
20592 20594 20596 20597 1 180.0000771 15.1670000 2
20592 20594 20596 20598 1 180.0000771 15.1670000 2
20595 20594 20596 20597 1 180.0000771 15.1670000 2
20595 20594 20596 20598 1 180.0000771 15.1670000 2
20592 20596 20594 20595 4 180.0000771 4.6024000 2
20594 20596 20598 20599 1 180.0000771 15.1670000 2
20594 20596 20598 20600 1 180.0000771 15.1670000 2
20597 20596 20598 20599 1 180.0000771 15.1670000 2
20597 20596 20598 20600 1 180.0000771 15.1670000 2
20594 20598 20596 20597 4 180.0000771 4.6024000 2
20591 20598 20600 20601 4 180.0000771 4.6024000 2
20596 20598 20600 20601 1 180.0000771 15.1670000 2
20599 20598 20600 20601 1 180.0000771 15.1670000 2
20591 20600 20598 20596 1 180.0000771 15.1670000 2
20591 20600 20598 20599 1 180.0000771 15.1670000 2
20596 20600 20598 20599 4 180.0000771 4.6024000 2
20602 20603 20604 20605 1 180.0000771 15.1670000 2
20602 20603 20604 20606 1 180.0000771 15.1670000 2
20605 20603 20604 20606 4 180.0000771 4.6024000 2
20602 20603 20612 20604 4 180.0000771 4.6024000 2
20602 20603 20612 20610 1 180.0000771 15.1670000 2
20602 20603 20612 20613 1 180.0000771 15.1670000 2
20604 20603 20612 20610 1 180.0000771 15.1670000 2
20604 20603 20612 20613 1 180.0000771 15.1670000 2
20605 20604 20603 20612 1 180.0000771 15.1670000 2
20606 20604 20603 20612 1 180.0000771 15.1670000 2
20603 20604 20606 20607 1 180.0000771 15.1670000 2
20603 20604 20606 20608 1 180.0000771 15.1670000 2
20605 20604 20606 20607 1 180.0000771 15.1670000 2
20605 20604 20606 20608 1 180.0000771 15.1670000 2
20604 20606 20608 20609 1 180.0000771 15.1670000 2
20604 20606 20608 20610 1 180.0000771 15.1670000 2
20607 20606 20608 20609 1 180.0000771 15.1670000 2
20607 20606 20608 20610 1 180.0000771 15.1670000 2
20604 20608 20606 20607 4 180.0000771 4.6024000 2
20606 20608 20610 20611 1 180.0000771 15.1670000 2
20606 20608 20610 20612 1 180.0000771 15.1670000 2
20609 20608 20610 20611 1 180.0000771 15.1670000 2
20609 20608 20610 20612 1 180.0000771 15.1670000 2
20606 20610 20608 20609 4 180.0000771 4.6024000 2
20603 20610 20612 20613 4 180.0000771 4.6024000 2
20608 20610 20612 20613 1 180.0000771 15.1670000 2
20611 20610 20612 20613 1 180.0000771 15.1670000 2
20603 20612 20610 20608 1 180.0000771 15.1670000 2
20603 20612 20610 20611 1 180.0000771 15.1670000 2
20608 20612 20610 20611 4 180.0000771 4.6024000 2
20614 20615 20616 20617 1 180.0000771 15.1670000 2
20614 20615 20616 20618 1 180.0000771 15.1670000 2
20617 20615 20616 20618 4 180.0000771 4.6024000 2
20614 20615 20624 20616 4 180.0000771 4.6024000 2
20614 20615 20624 20622 1 180.0000771 15.1670000 2
20614 20615 20624 20625 1 180.0000771 15.1670000 2
20616 20615 20624 20622 1 180.0000771 15.1670000 2
20616 20615 20624 20625 1 180.0000771 15.1670000 2
20617 20616 20615 20624 1 180.0000771 15.1670000 2
20618 20616 20615 20624 1 180.0000771 15.1670000 2
20615 20616 20618 20619 1 180.0000771 15.1670000 2
20615 20616 20618 20620 1 180.0000771 15.1670000 2
20617 20616 20618 20619 1 180.0000771 15.1670000 2
20617 20616 20618 20620 1 180.0000771 15.1670000 2
20616 20618 20620 20621 1 180.0000771 15.1670000 2
20616 20618 20620 20622 1 180.0000771 15.1670000 2
20619 20618 20620 20621 1 180.0000771 15.1670000 2
20619 20618 20620 20622 1 180.0000771 15.1670000 2
20616 20620 20618 20619 4 180.0000771 4.6024000 2
20618 20620 20622 20623 1 180.0000771 15.1670000 2
20618 20620 20622 20624 1 180.0000771 15.1670000 2
20621 20620 20622 20623 1 180.0000771 15.1670000 2
20621 20620 20622 20624 1 180.0000771 15.1670000 2
20618 20622 20620 20621 4 180.0000771 4.6024000 2
20615 20622 20624 20625 4 180.0000771 4.6024000 2
20620 20622 20624 20625 1 180.0000771 15.1670000 2
20623 20622 20624 20625 1 180.0000771 15.1670000 2
20615 20624 20622 20620 1 180.0000771 15.1670000 2
20615 20624 20622 20623 1 180.0000771 15.1670000 2
20620 20624 20622 20623 4 180.0000771 4.6024000 2
20626 20627 20628 20629 1 180.0000771 15.1670000 2
20626 20627 20628 20630 1 180.0000771 15.1670000 2
20629 20627 20628 20630 4 180.0000771 4.6024000 2
20626 20627 20636 20628 4 180.0000771 4.6024000 2
20626 20627 20636 20634 1 180.0000771 15.1670000 2
20626 20627 20636 20637 1 180.0000771 15.1670000 2
20628 20627 20636 20634 1 180.0000771 15.1670000 2
20628 20627 20636 20637 1 180.0000771 15.1670000 2
20629 20628 20627 20636 1 180.0000771 15.1670000 2
20630 20628 20627 20636 1 180.0000771 15.1670000 2
20627 20628 20630 20631 1 180.0000771 15.1670000 2
20627 20628 20630 20632 1 180.0000771 15.1670000 2
20629 20628 20630 20631 1 180.0000771 15.1670000 2
20629 20628 20630 20632 1 180.0000771 15.1670000 2
20628 20630 20632 20633 1 180.0000771 15.1670000 2
20628 20630 20632 20634 1 180.0000771 15.1670000 2
20631 20630 20632 20633 1 180.0000771 15.1670000 2
20631 20630 20632 20634 1 180.0000771 15.1670000 2
20628 20632 20630 20631 4 180.0000771 4.6024000 2
20630 20632 20634 20635 1 180.0000771 15.1670000 2
20630 20632 20634 20636 1 180.0000771 15.1670000 2
20633 20632 20634 20635 1 180.0000771 15.1670000 2
20633 20632 20634 20636 1 180.0000771 15.1670000 2
20630 20634 20632 20633 4 180.0000771 4.6024000 2
20627 20634 20636 20637 4 180.0000771 4.6024000 2
20632 20634 20636 20637 1 180.0000771 15.1670000 2
20635 20634 20636 20637 1 180.0000771 15.1670000 2
20627 20636 20634 20632 1 180.0000771 15.1670000 2
20627 20636 20634 20635 1 180.0000771 15.1670000 2
20632 20636 20634 20635 4 180.0000771 4.6024000 2
20638 20639 20640 20641 1 180.0000771 15.1670000 2
20638 20639 20640 20642 1 180.0000771 15.1670000 2
20641 20639 20640 20642 4 180.0000771 4.6024000 2
20638 20639 20648 20640 4 180.0000771 4.6024000 2
20638 20639 20648 20646 1 180.0000771 15.1670000 2
20638 20639 20648 20649 1 180.0000771 15.1670000 2
20640 20639 20648 20646 1 180.0000771 15.1670000 2
20640 20639 20648 20649 1 180.0000771 15.1670000 2
20641 20640 20639 20648 1 180.0000771 15.1670000 2
20642 20640 20639 20648 1 180.0000771 15.1670000 2
20639 20640 20642 20643 1 180.0000771 15.1670000 2
20639 20640 20642 20644 1 180.0000771 15.1670000 2
20641 20640 20642 20643 1 180.0000771 15.1670000 2
20641 20640 20642 20644 1 180.0000771 15.1670000 2
20640 20642 20644 20645 1 180.0000771 15.1670000 2
20640 20642 20644 20646 1 180.0000771 15.1670000 2
20643 20642 20644 20645 1 180.0000771 15.1670000 2
20643 20642 20644 20646 1 180.0000771 15.1670000 2
20640 20644 20642 20643 4 180.0000771 4.6024000 2
20642 20644 20646 20647 1 180.0000771 15.1670000 2
20642 20644 20646 20648 1 180.0000771 15.1670000 2
20645 20644 20646 20647 1 180.0000771 15.1670000 2
20645 20644 20646 20648 1 180.0000771 15.1670000 2
20642 20646 20644 20645 4 180.0000771 4.6024000 2
20639 20646 20648 20649 4 180.0000771 4.6024000 2
20644 20646 20648 20649 1 180.0000771 15.1670000 2
20647 20646 20648 20649 1 180.0000771 15.1670000 2
20639 20648 20646 20644 1 180.0000771 15.1670000 2
20639 20648 20646 20647 1 180.0000771 15.1670000 2
20644 20648 20646 20647 4 180.0000771 4.6024000 2
20650 20651 20652 20653 1 180.0000771 15.1670000 2
20650 20651 20652 20654 1 180.0000771 15.1670000 2
20653 20651 20652 20654 4 180.0000771 4.6024000 2
20650 20651 20660 20652 4 180.0000771 4.6024000 2
20650 20651 20660 20658 1 180.0000771 15.1670000 2
20650 20651 20660 20661 1 180.0000771 15.1670000 2
20652 20651 20660 20658 1 180.0000771 15.1670000 2
20652 20651 20660 20661 1 180.0000771 15.1670000 2
20653 20652 20651 20660 1 180.0000771 15.1670000 2
20654 20652 20651 20660 1 180.0000771 15.1670000 2
20651 20652 20654 20655 1 180.0000771 15.1670000 2
20651 20652 20654 20656 1 180.0000771 15.1670000 2
20653 20652 20654 20655 1 180.0000771 15.1670000 2
20653 20652 20654 20656 1 180.0000771 15.1670000 2
20652 20654 20656 20657 1 180.0000771 15.1670000 2
20652 20654 20656 20658 1 180.0000771 15.1670000 2
20655 20654 20656 20657 1 180.0000771 15.1670000 2
20655 20654 20656 20658 1 180.0000771 15.1670000 2
20652 20656 20654 20655 4 180.0000771 4.6024000 2
20654 20656 20658 20659 1 180.0000771 15.1670000 2
20654 20656 20658 20660 1 180.0000771 15.1670000 2
20657 20656 20658 20659 1 180.0000771 15.1670000 2
20657 20656 20658 20660 1 180.0000771 15.1670000 2
20654 20658 20656 20657 4 180.0000771 4.6024000 2
20651 20658 20660 20661 4 180.0000771 4.6024000 2
20656 20658 20660 20661 1 180.0000771 15.1670000 2
20659 20658 20660 20661 1 180.0000771 15.1670000 2
20651 20660 20658 20656 1 180.0000771 15.1670000 2
20651 20660 20658 20659 1 180.0000771 15.1670000 2
20656 20660 20658 20659 4 180.0000771 4.6024000 2
20662 20663 20664 20665 1 180.0000771 15.1670000 2
20662 20663 20664 20666 1 180.0000771 15.1670000 2
20665 20663 20664 20666 4 180.0000771 4.6024000 2
20662 20663 20672 20664 4 180.0000771 4.6024000 2
20662 20663 20672 20670 1 180.0000771 15.1670000 2
20662 20663 20672 20673 1 180.0000771 15.1670000 2
20664 20663 20672 20670 1 180.0000771 15.1670000 2
20664 20663 20672 20673 1 180.0000771 15.1670000 2
20665 20664 20663 20672 1 180.0000771 15.1670000 2
20666 20664 20663 20672 1 180.0000771 15.1670000 2
20663 20664 20666 20667 1 180.0000771 15.1670000 2
20663 20664 20666 20668 1 180.0000771 15.1670000 2
20665 20664 20666 20667 1 180.0000771 15.1670000 2
20665 20664 20666 20668 1 180.0000771 15.1670000 2
20664 20666 20668 20669 1 180.0000771 15.1670000 2
20664 20666 20668 20670 1 180.0000771 15.1670000 2
20667 20666 20668 20669 1 180.0000771 15.1670000 2
20667 20666 20668 20670 1 180.0000771 15.1670000 2
20664 20668 20666 20667 4 180.0000771 4.6024000 2
20666 20668 20670 20671 1 180.0000771 15.1670000 2
20666 20668 20670 20672 1 180.0000771 15.1670000 2
20669 20668 20670 20671 1 180.0000771 15.1670000 2
20669 20668 20670 20672 1 180.0000771 15.1670000 2
20666 20670 20668 20669 4 180.0000771 4.6024000 2
20663 20670 20672 20673 4 180.0000771 4.6024000 2
20668 20670 20672 20673 1 180.0000771 15.1670000 2
20671 20670 20672 20673 1 180.0000771 15.1670000 2
20663 20672 20670 20668 1 180.0000771 15.1670000 2
20663 20672 20670 20671 1 180.0000771 15.1670000 2
20668 20672 20670 20671 4 180.0000771 4.6024000 2
20674 20675 20676 20677 1 180.0000771 15.1670000 2
20674 20675 20676 20678 1 180.0000771 15.1670000 2
20677 20675 20676 20678 4 180.0000771 4.6024000 2
20674 20675 20684 20676 4 180.0000771 4.6024000 2
20674 20675 20684 20682 1 180.0000771 15.1670000 2
20674 20675 20684 20685 1 180.0000771 15.1670000 2
20676 20675 20684 20682 1 180.0000771 15.1670000 2
20676 20675 20684 20685 1 180.0000771 15.1670000 2
20677 20676 20675 20684 1 180.0000771 15.1670000 2
20678 20676 20675 20684 1 180.0000771 15.1670000 2
20675 20676 20678 20679 1 180.0000771 15.1670000 2
20675 20676 20678 20680 1 180.0000771 15.1670000 2
20677 20676 20678 20679 1 180.0000771 15.1670000 2
20677 20676 20678 20680 1 180.0000771 15.1670000 2
20676 20678 20680 20681 1 180.0000771 15.1670000 2
20676 20678 20680 20682 1 180.0000771 15.1670000 2
20679 20678 20680 20681 1 180.0000771 15.1670000 2
20679 20678 20680 20682 1 180.0000771 15.1670000 2
20676 20680 20678 20679 4 180.0000771 4.6024000 2
20678 20680 20682 20683 1 180.0000771 15.1670000 2
20678 20680 20682 20684 1 180.0000771 15.1670000 2
20681 20680 20682 20683 1 180.0000771 15.1670000 2
20681 20680 20682 20684 1 180.0000771 15.1670000 2
20678 20682 20680 20681 4 180.0000771 4.6024000 2
20675 20682 20684 20685 4 180.0000771 4.6024000 2
20680 20682 20684 20685 1 180.0000771 15.1670000 2
20683 20682 20684 20685 1 180.0000771 15.1670000 2
20675 20684 20682 20680 1 180.0000771 15.1670000 2
20675 20684 20682 20683 1 180.0000771 15.1670000 2
20680 20684 20682 20683 4 180.0000771 4.6024000 2
20686 20687 20688 20689 1 180.0000771 15.1670000 2
20686 20687 20688 20690 1 180.0000771 15.1670000 2
20689 20687 20688 20690 4 180.0000771 4.6024000 2
20686 20687 20696 20688 4 180.0000771 4.6024000 2
20686 20687 20696 20694 1 180.0000771 15.1670000 2
20686 20687 20696 20697 1 180.0000771 15.1670000 2
20688 20687 20696 20694 1 180.0000771 15.1670000 2
20688 20687 20696 20697 1 180.0000771 15.1670000 2
20689 20688 20687 20696 1 180.0000771 15.1670000 2
20690 20688 20687 20696 1 180.0000771 15.1670000 2
20687 20688 20690 20691 1 180.0000771 15.1670000 2
20687 20688 20690 20692 1 180.0000771 15.1670000 2
20689 20688 20690 20691 1 180.0000771 15.1670000 2
20689 20688 20690 20692 1 180.0000771 15.1670000 2
20688 20690 20692 20693 1 180.0000771 15.1670000 2
20688 20690 20692 20694 1 180.0000771 15.1670000 2
20691 20690 20692 20693 1 180.0000771 15.1670000 2
20691 20690 20692 20694 1 180.0000771 15.1670000 2
20688 20692 20690 20691 4 180.0000771 4.6024000 2
20690 20692 20694 20695 1 180.0000771 15.1670000 2
20690 20692 20694 20696 1 180.0000771 15.1670000 2
20693 20692 20694 20695 1 180.0000771 15.1670000 2
20693 20692 20694 20696 1 180.0000771 15.1670000 2
20690 20694 20692 20693 4 180.0000771 4.6024000 2
20687 20694 20696 20697 4 180.0000771 4.6024000 2
20692 20694 20696 20697 1 180.0000771 15.1670000 2
20695 20694 20696 20697 1 180.0000771 15.1670000 2
20687 20696 20694 20692 1 180.0000771 15.1670000 2
20687 20696 20694 20695 1 180.0000771 15.1670000 2
20692 20696 20694 20695 4 180.0000771 4.6024000 2
20698 20699 20700 20701 1 180.0000771 15.1670000 2
20698 20699 20700 20702 1 180.0000771 15.1670000 2
20701 20699 20700 20702 4 180.0000771 4.6024000 2
20698 20699 20708 20700 4 180.0000771 4.6024000 2
20698 20699 20708 20706 1 180.0000771 15.1670000 2
20698 20699 20708 20709 1 180.0000771 15.1670000 2
20700 20699 20708 20706 1 180.0000771 15.1670000 2
20700 20699 20708 20709 1 180.0000771 15.1670000 2
20701 20700 20699 20708 1 180.0000771 15.1670000 2
20702 20700 20699 20708 1 180.0000771 15.1670000 2
20699 20700 20702 20703 1 180.0000771 15.1670000 2
20699 20700 20702 20704 1 180.0000771 15.1670000 2
20701 20700 20702 20703 1 180.0000771 15.1670000 2
20701 20700 20702 20704 1 180.0000771 15.1670000 2
20700 20702 20704 20705 1 180.0000771 15.1670000 2
20700 20702 20704 20706 1 180.0000771 15.1670000 2
20703 20702 20704 20705 1 180.0000771 15.1670000 2
20703 20702 20704 20706 1 180.0000771 15.1670000 2
20700 20704 20702 20703 4 180.0000771 4.6024000 2
20702 20704 20706 20707 1 180.0000771 15.1670000 2
20702 20704 20706 20708 1 180.0000771 15.1670000 2
20705 20704 20706 20707 1 180.0000771 15.1670000 2
20705 20704 20706 20708 1 180.0000771 15.1670000 2
20702 20706 20704 20705 4 180.0000771 4.6024000 2
20699 20706 20708 20709 4 180.0000771 4.6024000 2
20704 20706 20708 20709 1 180.0000771 15.1670000 2
20707 20706 20708 20709 1 180.0000771 15.1670000 2
20699 20708 20706 20704 1 180.0000771 15.1670000 2
20699 20708 20706 20707 1 180.0000771 15.1670000 2
20704 20708 20706 20707 4 180.0000771 4.6024000 2
20710 20711 20712 20713 1 180.0000771 15.1670000 2
20710 20711 20712 20714 1 180.0000771 15.1670000 2
20713 20711 20712 20714 4 180.0000771 4.6024000 2
20710 20711 20720 20712 4 180.0000771 4.6024000 2
20710 20711 20720 20718 1 180.0000771 15.1670000 2
20710 20711 20720 20721 1 180.0000771 15.1670000 2
20712 20711 20720 20718 1 180.0000771 15.1670000 2
20712 20711 20720 20721 1 180.0000771 15.1670000 2
20713 20712 20711 20720 1 180.0000771 15.1670000 2
20714 20712 20711 20720 1 180.0000771 15.1670000 2
20711 20712 20714 20715 1 180.0000771 15.1670000 2
20711 20712 20714 20716 1 180.0000771 15.1670000 2
20713 20712 20714 20715 1 180.0000771 15.1670000 2
20713 20712 20714 20716 1 180.0000771 15.1670000 2
20712 20714 20716 20717 1 180.0000771 15.1670000 2
20712 20714 20716 20718 1 180.0000771 15.1670000 2
20715 20714 20716 20717 1 180.0000771 15.1670000 2
20715 20714 20716 20718 1 180.0000771 15.1670000 2
20712 20716 20714 20715 4 180.0000771 4.6024000 2
20714 20716 20718 20719 1 180.0000771 15.1670000 2
20714 20716 20718 20720 1 180.0000771 15.1670000 2
20717 20716 20718 20719 1 180.0000771 15.1670000 2
20717 20716 20718 20720 1 180.0000771 15.1670000 2
20714 20718 20716 20717 4 180.0000771 4.6024000 2
20711 20718 20720 20721 4 180.0000771 4.6024000 2
20716 20718 20720 20721 1 180.0000771 15.1670000 2
20719 20718 20720 20721 1 180.0000771 15.1670000 2
20711 20720 20718 20716 1 180.0000771 15.1670000 2
20711 20720 20718 20719 1 180.0000771 15.1670000 2
20716 20720 20718 20719 4 180.0000771 4.6024000 2
20722 20723 20724 20725 1 180.0000771 15.1670000 2
20722 20723 20724 20726 1 180.0000771 15.1670000 2
20725 20723 20724 20726 4 180.0000771 4.6024000 2
20722 20723 20732 20724 4 180.0000771 4.6024000 2
20722 20723 20732 20730 1 180.0000771 15.1670000 2
20722 20723 20732 20733 1 180.0000771 15.1670000 2
20724 20723 20732 20730 1 180.0000771 15.1670000 2
20724 20723 20732 20733 1 180.0000771 15.1670000 2
20725 20724 20723 20732 1 180.0000771 15.1670000 2
20726 20724 20723 20732 1 180.0000771 15.1670000 2
20723 20724 20726 20727 1 180.0000771 15.1670000 2
20723 20724 20726 20728 1 180.0000771 15.1670000 2
20725 20724 20726 20727 1 180.0000771 15.1670000 2
20725 20724 20726 20728 1 180.0000771 15.1670000 2
20724 20726 20728 20729 1 180.0000771 15.1670000 2
20724 20726 20728 20730 1 180.0000771 15.1670000 2
20727 20726 20728 20729 1 180.0000771 15.1670000 2
20727 20726 20728 20730 1 180.0000771 15.1670000 2
20724 20728 20726 20727 4 180.0000771 4.6024000 2
20726 20728 20730 20731 1 180.0000771 15.1670000 2
20726 20728 20730 20732 1 180.0000771 15.1670000 2
20729 20728 20730 20731 1 180.0000771 15.1670000 2
20729 20728 20730 20732 1 180.0000771 15.1670000 2
20726 20730 20728 20729 4 180.0000771 4.6024000 2
20723 20730 20732 20733 4 180.0000771 4.6024000 2
20728 20730 20732 20733 1 180.0000771 15.1670000 2
20731 20730 20732 20733 1 180.0000771 15.1670000 2
20723 20732 20730 20728 1 180.0000771 15.1670000 2
20723 20732 20730 20731 1 180.0000771 15.1670000 2
20728 20732 20730 20731 4 180.0000771 4.6024000 2
20734 20735 20736 20737 1 180.0000771 15.1670000 2
20734 20735 20736 20738 1 180.0000771 15.1670000 2
20737 20735 20736 20738 4 180.0000771 4.6024000 2
20734 20735 20744 20736 4 180.0000771 4.6024000 2
20734 20735 20744 20742 1 180.0000771 15.1670000 2
20734 20735 20744 20745 1 180.0000771 15.1670000 2
20736 20735 20744 20742 1 180.0000771 15.1670000 2
20736 20735 20744 20745 1 180.0000771 15.1670000 2
20737 20736 20735 20744 1 180.0000771 15.1670000 2
20738 20736 20735 20744 1 180.0000771 15.1670000 2
20735 20736 20738 20739 1 180.0000771 15.1670000 2
20735 20736 20738 20740 1 180.0000771 15.1670000 2
20737 20736 20738 20739 1 180.0000771 15.1670000 2
20737 20736 20738 20740 1 180.0000771 15.1670000 2
20736 20738 20740 20741 1 180.0000771 15.1670000 2
20736 20738 20740 20742 1 180.0000771 15.1670000 2
20739 20738 20740 20741 1 180.0000771 15.1670000 2
20739 20738 20740 20742 1 180.0000771 15.1670000 2
20736 20740 20738 20739 4 180.0000771 4.6024000 2
20738 20740 20742 20743 1 180.0000771 15.1670000 2
20738 20740 20742 20744 1 180.0000771 15.1670000 2
20741 20740 20742 20743 1 180.0000771 15.1670000 2
20741 20740 20742 20744 1 180.0000771 15.1670000 2
20738 20742 20740 20741 4 180.0000771 4.6024000 2
20735 20742 20744 20745 4 180.0000771 4.6024000 2
20740 20742 20744 20745 1 180.0000771 15.1670000 2
20743 20742 20744 20745 1 180.0000771 15.1670000 2
20735 20744 20742 20740 1 180.0000771 15.1670000 2
20735 20744 20742 20743 1 180.0000771 15.1670000 2
20740 20744 20742 20743 4 180.0000771 4.6024000 2
20746 20747 20748 20749 1 180.0000771 15.1670000 2
20746 20747 20748 20750 1 180.0000771 15.1670000 2
20749 20747 20748 20750 4 180.0000771 4.6024000 2
20746 20747 20756 20748 4 180.0000771 4.6024000 2
20746 20747 20756 20754 1 180.0000771 15.1670000 2
20746 20747 20756 20757 1 180.0000771 15.1670000 2
20748 20747 20756 20754 1 180.0000771 15.1670000 2
20748 20747 20756 20757 1 180.0000771 15.1670000 2
20749 20748 20747 20756 1 180.0000771 15.1670000 2
20750 20748 20747 20756 1 180.0000771 15.1670000 2
20747 20748 20750 20751 1 180.0000771 15.1670000 2
20747 20748 20750 20752 1 180.0000771 15.1670000 2
20749 20748 20750 20751 1 180.0000771 15.1670000 2
20749 20748 20750 20752 1 180.0000771 15.1670000 2
20748 20750 20752 20753 1 180.0000771 15.1670000 2
20748 20750 20752 20754 1 180.0000771 15.1670000 2
20751 20750 20752 20753 1 180.0000771 15.1670000 2
20751 20750 20752 20754 1 180.0000771 15.1670000 2
20748 20752 20750 20751 4 180.0000771 4.6024000 2
20750 20752 20754 20755 1 180.0000771 15.1670000 2
20750 20752 20754 20756 1 180.0000771 15.1670000 2
20753 20752 20754 20755 1 180.0000771 15.1670000 2
20753 20752 20754 20756 1 180.0000771 15.1670000 2
20750 20754 20752 20753 4 180.0000771 4.6024000 2
20747 20754 20756 20757 4 180.0000771 4.6024000 2
20752 20754 20756 20757 1 180.0000771 15.1670000 2
20755 20754 20756 20757 1 180.0000771 15.1670000 2
20747 20756 20754 20752 1 180.0000771 15.1670000 2
20747 20756 20754 20755 1 180.0000771 15.1670000 2
20752 20756 20754 20755 4 180.0000771 4.6024000 2
20758 20759 20760 20761 1 180.0000771 15.1670000 2
20758 20759 20760 20762 1 180.0000771 15.1670000 2
20761 20759 20760 20762 4 180.0000771 4.6024000 2
20758 20759 20768 20760 4 180.0000771 4.6024000 2
20758 20759 20768 20766 1 180.0000771 15.1670000 2
20758 20759 20768 20769 1 180.0000771 15.1670000 2
20760 20759 20768 20766 1 180.0000771 15.1670000 2
20760 20759 20768 20769 1 180.0000771 15.1670000 2
20761 20760 20759 20768 1 180.0000771 15.1670000 2
20762 20760 20759 20768 1 180.0000771 15.1670000 2
20759 20760 20762 20763 1 180.0000771 15.1670000 2
20759 20760 20762 20764 1 180.0000771 15.1670000 2
20761 20760 20762 20763 1 180.0000771 15.1670000 2
20761 20760 20762 20764 1 180.0000771 15.1670000 2
20760 20762 20764 20765 1 180.0000771 15.1670000 2
20760 20762 20764 20766 1 180.0000771 15.1670000 2
20763 20762 20764 20765 1 180.0000771 15.1670000 2
20763 20762 20764 20766 1 180.0000771 15.1670000 2
20760 20764 20762 20763 4 180.0000771 4.6024000 2
20762 20764 20766 20767 1 180.0000771 15.1670000 2
20762 20764 20766 20768 1 180.0000771 15.1670000 2
20765 20764 20766 20767 1 180.0000771 15.1670000 2
20765 20764 20766 20768 1 180.0000771 15.1670000 2
20762 20766 20764 20765 4 180.0000771 4.6024000 2
20759 20766 20768 20769 4 180.0000771 4.6024000 2
20764 20766 20768 20769 1 180.0000771 15.1670000 2
20767 20766 20768 20769 1 180.0000771 15.1670000 2
20759 20768 20766 20764 1 180.0000771 15.1670000 2
20759 20768 20766 20767 1 180.0000771 15.1670000 2
20764 20768 20766 20767 4 180.0000771 4.6024000 2
20770 20771 20772 20773 1 180.0000771 15.1670000 2
20770 20771 20772 20774 1 180.0000771 15.1670000 2
20773 20771 20772 20774 4 180.0000771 4.6024000 2
20770 20771 20780 20772 4 180.0000771 4.6024000 2
20770 20771 20780 20778 1 180.0000771 15.1670000 2
20770 20771 20780 20781 1 180.0000771 15.1670000 2
20772 20771 20780 20778 1 180.0000771 15.1670000 2
20772 20771 20780 20781 1 180.0000771 15.1670000 2
20773 20772 20771 20780 1 180.0000771 15.1670000 2
20774 20772 20771 20780 1 180.0000771 15.1670000 2
20771 20772 20774 20775 1 180.0000771 15.1670000 2
20771 20772 20774 20776 1 180.0000771 15.1670000 2
20773 20772 20774 20775 1 180.0000771 15.1670000 2
20773 20772 20774 20776 1 180.0000771 15.1670000 2
20772 20774 20776 20777 1 180.0000771 15.1670000 2
20772 20774 20776 20778 1 180.0000771 15.1670000 2
20775 20774 20776 20777 1 180.0000771 15.1670000 2
20775 20774 20776 20778 1 180.0000771 15.1670000 2
20772 20776 20774 20775 4 180.0000771 4.6024000 2
20774 20776 20778 20779 1 180.0000771 15.1670000 2
20774 20776 20778 20780 1 180.0000771 15.1670000 2
20777 20776 20778 20779 1 180.0000771 15.1670000 2
20777 20776 20778 20780 1 180.0000771 15.1670000 2
20774 20778 20776 20777 4 180.0000771 4.6024000 2
20771 20778 20780 20781 4 180.0000771 4.6024000 2
20776 20778 20780 20781 1 180.0000771 15.1670000 2
20779 20778 20780 20781 1 180.0000771 15.1670000 2
20771 20780 20778 20776 1 180.0000771 15.1670000 2
20771 20780 20778 20779 1 180.0000771 15.1670000 2
20776 20780 20778 20779 4 180.0000771 4.6024000 2
20782 20783 20784 20785 1 180.0000771 15.1670000 2
20782 20783 20784 20786 1 180.0000771 15.1670000 2
20785 20783 20784 20786 4 180.0000771 4.6024000 2
20782 20783 20792 20784 4 180.0000771 4.6024000 2
20782 20783 20792 20790 1 180.0000771 15.1670000 2
20782 20783 20792 20793 1 180.0000771 15.1670000 2
20784 20783 20792 20790 1 180.0000771 15.1670000 2
20784 20783 20792 20793 1 180.0000771 15.1670000 2
20785 20784 20783 20792 1 180.0000771 15.1670000 2
20786 20784 20783 20792 1 180.0000771 15.1670000 2
20783 20784 20786 20787 1 180.0000771 15.1670000 2
20783 20784 20786 20788 1 180.0000771 15.1670000 2
20785 20784 20786 20787 1 180.0000771 15.1670000 2
20785 20784 20786 20788 1 180.0000771 15.1670000 2
20784 20786 20788 20789 1 180.0000771 15.1670000 2
20784 20786 20788 20790 1 180.0000771 15.1670000 2
20787 20786 20788 20789 1 180.0000771 15.1670000 2
20787 20786 20788 20790 1 180.0000771 15.1670000 2
20784 20788 20786 20787 4 180.0000771 4.6024000 2
20786 20788 20790 20791 1 180.0000771 15.1670000 2
20786 20788 20790 20792 1 180.0000771 15.1670000 2
20789 20788 20790 20791 1 180.0000771 15.1670000 2
20789 20788 20790 20792 1 180.0000771 15.1670000 2
20786 20790 20788 20789 4 180.0000771 4.6024000 2
20783 20790 20792 20793 4 180.0000771 4.6024000 2
20788 20790 20792 20793 1 180.0000771 15.1670000 2
20791 20790 20792 20793 1 180.0000771 15.1670000 2
20783 20792 20790 20788 1 180.0000771 15.1670000 2
20783 20792 20790 20791 1 180.0000771 15.1670000 2
20788 20792 20790 20791 4 180.0000771 4.6024000 2
20794 20795 20796 20797 1 180.0000771 15.1670000 2
20794 20795 20796 20798 1 180.0000771 15.1670000 2
20797 20795 20796 20798 4 180.0000771 4.6024000 2
20794 20795 20804 20796 4 180.0000771 4.6024000 2
20794 20795 20804 20802 1 180.0000771 15.1670000 2
20794 20795 20804 20805 1 180.0000771 15.1670000 2
20796 20795 20804 20802 1 180.0000771 15.1670000 2
20796 20795 20804 20805 1 180.0000771 15.1670000 2
20797 20796 20795 20804 1 180.0000771 15.1670000 2
20798 20796 20795 20804 1 180.0000771 15.1670000 2
20795 20796 20798 20799 1 180.0000771 15.1670000 2
20795 20796 20798 20800 1 180.0000771 15.1670000 2
20797 20796 20798 20799 1 180.0000771 15.1670000 2
20797 20796 20798 20800 1 180.0000771 15.1670000 2
20796 20798 20800 20801 1 180.0000771 15.1670000 2
20796 20798 20800 20802 1 180.0000771 15.1670000 2
20799 20798 20800 20801 1 180.0000771 15.1670000 2
20799 20798 20800 20802 1 180.0000771 15.1670000 2
20796 20800 20798 20799 4 180.0000771 4.6024000 2
20798 20800 20802 20803 1 180.0000771 15.1670000 2
20798 20800 20802 20804 1 180.0000771 15.1670000 2
20801 20800 20802 20803 1 180.0000771 15.1670000 2
20801 20800 20802 20804 1 180.0000771 15.1670000 2
20798 20802 20800 20801 4 180.0000771 4.6024000 2
20795 20802 20804 20805 4 180.0000771 4.6024000 2
20800 20802 20804 20805 1 180.0000771 15.1670000 2
20803 20802 20804 20805 1 180.0000771 15.1670000 2
20795 20804 20802 20800 1 180.0000771 15.1670000 2
20795 20804 20802 20803 1 180.0000771 15.1670000 2
20800 20804 20802 20803 4 180.0000771 4.6024000 2
20806 20807 20808 20809 1 180.0000771 15.1670000 2
20806 20807 20808 20810 1 180.0000771 15.1670000 2
20809 20807 20808 20810 4 180.0000771 4.6024000 2
20806 20807 20816 20808 4 180.0000771 4.6024000 2
20806 20807 20816 20814 1 180.0000771 15.1670000 2
20806 20807 20816 20817 1 180.0000771 15.1670000 2
20808 20807 20816 20814 1 180.0000771 15.1670000 2
20808 20807 20816 20817 1 180.0000771 15.1670000 2
20809 20808 20807 20816 1 180.0000771 15.1670000 2
20810 20808 20807 20816 1 180.0000771 15.1670000 2
20807 20808 20810 20811 1 180.0000771 15.1670000 2
20807 20808 20810 20812 1 180.0000771 15.1670000 2
20809 20808 20810 20811 1 180.0000771 15.1670000 2
20809 20808 20810 20812 1 180.0000771 15.1670000 2
20808 20810 20812 20813 1 180.0000771 15.1670000 2
20808 20810 20812 20814 1 180.0000771 15.1670000 2
20811 20810 20812 20813 1 180.0000771 15.1670000 2
20811 20810 20812 20814 1 180.0000771 15.1670000 2
20808 20812 20810 20811 4 180.0000771 4.6024000 2
20810 20812 20814 20815 1 180.0000771 15.1670000 2
20810 20812 20814 20816 1 180.0000771 15.1670000 2
20813 20812 20814 20815 1 180.0000771 15.1670000 2
20813 20812 20814 20816 1 180.0000771 15.1670000 2
20810 20814 20812 20813 4 180.0000771 4.6024000 2
20807 20814 20816 20817 4 180.0000771 4.6024000 2
20812 20814 20816 20817 1 180.0000771 15.1670000 2
20815 20814 20816 20817 1 180.0000771 15.1670000 2
20807 20816 20814 20812 1 180.0000771 15.1670000 2
20807 20816 20814 20815 1 180.0000771 15.1670000 2
20812 20816 20814 20815 4 180.0000771 4.6024000 2
20818 20819 20820 20821 1 180.0000771 15.1670000 2
20818 20819 20820 20822 1 180.0000771 15.1670000 2
20821 20819 20820 20822 4 180.0000771 4.6024000 2
20818 20819 20828 20820 4 180.0000771 4.6024000 2
20818 20819 20828 20826 1 180.0000771 15.1670000 2
20818 20819 20828 20829 1 180.0000771 15.1670000 2
20820 20819 20828 20826 1 180.0000771 15.1670000 2
20820 20819 20828 20829 1 180.0000771 15.1670000 2
20821 20820 20819 20828 1 180.0000771 15.1670000 2
20822 20820 20819 20828 1 180.0000771 15.1670000 2
20819 20820 20822 20823 1 180.0000771 15.1670000 2
20819 20820 20822 20824 1 180.0000771 15.1670000 2
20821 20820 20822 20823 1 180.0000771 15.1670000 2
20821 20820 20822 20824 1 180.0000771 15.1670000 2
20820 20822 20824 20825 1 180.0000771 15.1670000 2
20820 20822 20824 20826 1 180.0000771 15.1670000 2
20823 20822 20824 20825 1 180.0000771 15.1670000 2
20823 20822 20824 20826 1 180.0000771 15.1670000 2
20820 20824 20822 20823 4 180.0000771 4.6024000 2
20822 20824 20826 20827 1 180.0000771 15.1670000 2
20822 20824 20826 20828 1 180.0000771 15.1670000 2
20825 20824 20826 20827 1 180.0000771 15.1670000 2
20825 20824 20826 20828 1 180.0000771 15.1670000 2
20822 20826 20824 20825 4 180.0000771 4.6024000 2
20819 20826 20828 20829 4 180.0000771 4.6024000 2
20824 20826 20828 20829 1 180.0000771 15.1670000 2
20827 20826 20828 20829 1 180.0000771 15.1670000 2
20819 20828 20826 20824 1 180.0000771 15.1670000 2
20819 20828 20826 20827 1 180.0000771 15.1670000 2
20824 20828 20826 20827 4 180.0000771 4.6024000 2
20830 20831 20832 20833 1 180.0000771 15.1670000 2
20830 20831 20832 20834 1 180.0000771 15.1670000 2
20833 20831 20832 20834 4 180.0000771 4.6024000 2
20830 20831 20840 20832 4 180.0000771 4.6024000 2
20830 20831 20840 20838 1 180.0000771 15.1670000 2
20830 20831 20840 20841 1 180.0000771 15.1670000 2
20832 20831 20840 20838 1 180.0000771 15.1670000 2
20832 20831 20840 20841 1 180.0000771 15.1670000 2
20833 20832 20831 20840 1 180.0000771 15.1670000 2
20834 20832 20831 20840 1 180.0000771 15.1670000 2
20831 20832 20834 20835 1 180.0000771 15.1670000 2
20831 20832 20834 20836 1 180.0000771 15.1670000 2
20833 20832 20834 20835 1 180.0000771 15.1670000 2
20833 20832 20834 20836 1 180.0000771 15.1670000 2
20832 20834 20836 20837 1 180.0000771 15.1670000 2
20832 20834 20836 20838 1 180.0000771 15.1670000 2
20835 20834 20836 20837 1 180.0000771 15.1670000 2
20835 20834 20836 20838 1 180.0000771 15.1670000 2
20832 20836 20834 20835 4 180.0000771 4.6024000 2
20834 20836 20838 20839 1 180.0000771 15.1670000 2
20834 20836 20838 20840 1 180.0000771 15.1670000 2
20837 20836 20838 20839 1 180.0000771 15.1670000 2
20837 20836 20838 20840 1 180.0000771 15.1670000 2
20834 20838 20836 20837 4 180.0000771 4.6024000 2
20831 20838 20840 20841 4 180.0000771 4.6024000 2
20836 20838 20840 20841 1 180.0000771 15.1670000 2
20839 20838 20840 20841 1 180.0000771 15.1670000 2
20831 20840 20838 20836 1 180.0000771 15.1670000 2
20831 20840 20838 20839 1 180.0000771 15.1670000 2
20836 20840 20838 20839 4 180.0000771 4.6024000 2
20842 20843 20844 20845 1 180.0000771 15.1670000 2
20842 20843 20844 20846 1 180.0000771 15.1670000 2
20845 20843 20844 20846 4 180.0000771 4.6024000 2
20842 20843 20852 20844 4 180.0000771 4.6024000 2
20842 20843 20852 20850 1 180.0000771 15.1670000 2
20842 20843 20852 20853 1 180.0000771 15.1670000 2
20844 20843 20852 20850 1 180.0000771 15.1670000 2
20844 20843 20852 20853 1 180.0000771 15.1670000 2
20845 20844 20843 20852 1 180.0000771 15.1670000 2
20846 20844 20843 20852 1 180.0000771 15.1670000 2
20843 20844 20846 20847 1 180.0000771 15.1670000 2
20843 20844 20846 20848 1 180.0000771 15.1670000 2
20845 20844 20846 20847 1 180.0000771 15.1670000 2
20845 20844 20846 20848 1 180.0000771 15.1670000 2
20844 20846 20848 20849 1 180.0000771 15.1670000 2
20844 20846 20848 20850 1 180.0000771 15.1670000 2
20847 20846 20848 20849 1 180.0000771 15.1670000 2
20847 20846 20848 20850 1 180.0000771 15.1670000 2
20844 20848 20846 20847 4 180.0000771 4.6024000 2
20846 20848 20850 20851 1 180.0000771 15.1670000 2
20846 20848 20850 20852 1 180.0000771 15.1670000 2
20849 20848 20850 20851 1 180.0000771 15.1670000 2
20849 20848 20850 20852 1 180.0000771 15.1670000 2
20846 20850 20848 20849 4 180.0000771 4.6024000 2
20843 20850 20852 20853 4 180.0000771 4.6024000 2
20848 20850 20852 20853 1 180.0000771 15.1670000 2
20851 20850 20852 20853 1 180.0000771 15.1670000 2
20843 20852 20850 20848 1 180.0000771 15.1670000 2
20843 20852 20850 20851 1 180.0000771 15.1670000 2
20848 20852 20850 20851 4 180.0000771 4.6024000 2
20854 20855 20856 20857 1 180.0000771 15.1670000 2
20854 20855 20856 20858 1 180.0000771 15.1670000 2
20857 20855 20856 20858 4 180.0000771 4.6024000 2
20854 20855 20864 20856 4 180.0000771 4.6024000 2
20854 20855 20864 20862 1 180.0000771 15.1670000 2
20854 20855 20864 20865 1 180.0000771 15.1670000 2
20856 20855 20864 20862 1 180.0000771 15.1670000 2
20856 20855 20864 20865 1 180.0000771 15.1670000 2
20857 20856 20855 20864 1 180.0000771 15.1670000 2
20858 20856 20855 20864 1 180.0000771 15.1670000 2
20855 20856 20858 20859 1 180.0000771 15.1670000 2
20855 20856 20858 20860 1 180.0000771 15.1670000 2
20857 20856 20858 20859 1 180.0000771 15.1670000 2
20857 20856 20858 20860 1 180.0000771 15.1670000 2
20856 20858 20860 20861 1 180.0000771 15.1670000 2
20856 20858 20860 20862 1 180.0000771 15.1670000 2
20859 20858 20860 20861 1 180.0000771 15.1670000 2
20859 20858 20860 20862 1 180.0000771 15.1670000 2
20856 20860 20858 20859 4 180.0000771 4.6024000 2
20858 20860 20862 20863 1 180.0000771 15.1670000 2
20858 20860 20862 20864 1 180.0000771 15.1670000 2
20861 20860 20862 20863 1 180.0000771 15.1670000 2
20861 20860 20862 20864 1 180.0000771 15.1670000 2
20858 20862 20860 20861 4 180.0000771 4.6024000 2
20855 20862 20864 20865 4 180.0000771 4.6024000 2
20860 20862 20864 20865 1 180.0000771 15.1670000 2
20863 20862 20864 20865 1 180.0000771 15.1670000 2
20855 20864 20862 20860 1 180.0000771 15.1670000 2
20855 20864 20862 20863 1 180.0000771 15.1670000 2
20860 20864 20862 20863 4 180.0000771 4.6024000 2
20866 20867 20868 20869 1 180.0000771 15.1670000 2
20866 20867 20868 20870 1 180.0000771 15.1670000 2
20869 20867 20868 20870 4 180.0000771 4.6024000 2
20866 20867 20876 20868 4 180.0000771 4.6024000 2
20866 20867 20876 20874 1 180.0000771 15.1670000 2
20866 20867 20876 20877 1 180.0000771 15.1670000 2
20868 20867 20876 20874 1 180.0000771 15.1670000 2
20868 20867 20876 20877 1 180.0000771 15.1670000 2
20869 20868 20867 20876 1 180.0000771 15.1670000 2
20870 20868 20867 20876 1 180.0000771 15.1670000 2
20867 20868 20870 20871 1 180.0000771 15.1670000 2
20867 20868 20870 20872 1 180.0000771 15.1670000 2
20869 20868 20870 20871 1 180.0000771 15.1670000 2
20869 20868 20870 20872 1 180.0000771 15.1670000 2
20868 20870 20872 20873 1 180.0000771 15.1670000 2
20868 20870 20872 20874 1 180.0000771 15.1670000 2
20871 20870 20872 20873 1 180.0000771 15.1670000 2
20871 20870 20872 20874 1 180.0000771 15.1670000 2
20868 20872 20870 20871 4 180.0000771 4.6024000 2
20870 20872 20874 20875 1 180.0000771 15.1670000 2
20870 20872 20874 20876 1 180.0000771 15.1670000 2
20873 20872 20874 20875 1 180.0000771 15.1670000 2
20873 20872 20874 20876 1 180.0000771 15.1670000 2
20870 20874 20872 20873 4 180.0000771 4.6024000 2
20867 20874 20876 20877 4 180.0000771 4.6024000 2
20872 20874 20876 20877 1 180.0000771 15.1670000 2
20875 20874 20876 20877 1 180.0000771 15.1670000 2
20867 20876 20874 20872 1 180.0000771 15.1670000 2
20867 20876 20874 20875 1 180.0000771 15.1670000 2
20872 20876 20874 20875 4 180.0000771 4.6024000 2
20878 20879 20880 20881 1 180.0000771 15.1670000 2
20878 20879 20880 20882 1 180.0000771 15.1670000 2
20881 20879 20880 20882 4 180.0000771 4.6024000 2
20878 20879 20888 20880 4 180.0000771 4.6024000 2
20878 20879 20888 20886 1 180.0000771 15.1670000 2
20878 20879 20888 20889 1 180.0000771 15.1670000 2
20880 20879 20888 20886 1 180.0000771 15.1670000 2
20880 20879 20888 20889 1 180.0000771 15.1670000 2
20881 20880 20879 20888 1 180.0000771 15.1670000 2
20882 20880 20879 20888 1 180.0000771 15.1670000 2
20879 20880 20882 20883 1 180.0000771 15.1670000 2
20879 20880 20882 20884 1 180.0000771 15.1670000 2
20881 20880 20882 20883 1 180.0000771 15.1670000 2
20881 20880 20882 20884 1 180.0000771 15.1670000 2
20880 20882 20884 20885 1 180.0000771 15.1670000 2
20880 20882 20884 20886 1 180.0000771 15.1670000 2
20883 20882 20884 20885 1 180.0000771 15.1670000 2
20883 20882 20884 20886 1 180.0000771 15.1670000 2
20880 20884 20882 20883 4 180.0000771 4.6024000 2
20882 20884 20886 20887 1 180.0000771 15.1670000 2
20882 20884 20886 20888 1 180.0000771 15.1670000 2
20885 20884 20886 20887 1 180.0000771 15.1670000 2
20885 20884 20886 20888 1 180.0000771 15.1670000 2
20882 20886 20884 20885 4 180.0000771 4.6024000 2
20879 20886 20888 20889 4 180.0000771 4.6024000 2
20884 20886 20888 20889 1 180.0000771 15.1670000 2
20887 20886 20888 20889 1 180.0000771 15.1670000 2
20879 20888 20886 20884 1 180.0000771 15.1670000 2
20879 20888 20886 20887 1 180.0000771 15.1670000 2
20884 20888 20886 20887 4 180.0000771 4.6024000 2
20890 20891 20892 20893 1 180.0000771 15.1670000 2
20890 20891 20892 20894 1 180.0000771 15.1670000 2
20893 20891 20892 20894 4 180.0000771 4.6024000 2
20890 20891 20900 20892 4 180.0000771 4.6024000 2
20890 20891 20900 20898 1 180.0000771 15.1670000 2
20890 20891 20900 20901 1 180.0000771 15.1670000 2
20892 20891 20900 20898 1 180.0000771 15.1670000 2
20892 20891 20900 20901 1 180.0000771 15.1670000 2
20893 20892 20891 20900 1 180.0000771 15.1670000 2
20894 20892 20891 20900 1 180.0000771 15.1670000 2
20891 20892 20894 20895 1 180.0000771 15.1670000 2
20891 20892 20894 20896 1 180.0000771 15.1670000 2
20893 20892 20894 20895 1 180.0000771 15.1670000 2
20893 20892 20894 20896 1 180.0000771 15.1670000 2
20892 20894 20896 20897 1 180.0000771 15.1670000 2
20892 20894 20896 20898 1 180.0000771 15.1670000 2
20895 20894 20896 20897 1 180.0000771 15.1670000 2
20895 20894 20896 20898 1 180.0000771 15.1670000 2
20892 20896 20894 20895 4 180.0000771 4.6024000 2
20894 20896 20898 20899 1 180.0000771 15.1670000 2
20894 20896 20898 20900 1 180.0000771 15.1670000 2
20897 20896 20898 20899 1 180.0000771 15.1670000 2
20897 20896 20898 20900 1 180.0000771 15.1670000 2
20894 20898 20896 20897 4 180.0000771 4.6024000 2
20891 20898 20900 20901 4 180.0000771 4.6024000 2
20896 20898 20900 20901 1 180.0000771 15.1670000 2
20899 20898 20900 20901 1 180.0000771 15.1670000 2
20891 20900 20898 20896 1 180.0000771 15.1670000 2
20891 20900 20898 20899 1 180.0000771 15.1670000 2
20896 20900 20898 20899 4 180.0000771 4.6024000 2
20902 20903 20904 20905 1 180.0000771 15.1670000 2
20902 20903 20904 20906 1 180.0000771 15.1670000 2
20905 20903 20904 20906 4 180.0000771 4.6024000 2
20902 20903 20912 20904 4 180.0000771 4.6024000 2
20902 20903 20912 20910 1 180.0000771 15.1670000 2
20902 20903 20912 20913 1 180.0000771 15.1670000 2
20904 20903 20912 20910 1 180.0000771 15.1670000 2
20904 20903 20912 20913 1 180.0000771 15.1670000 2
20905 20904 20903 20912 1 180.0000771 15.1670000 2
20906 20904 20903 20912 1 180.0000771 15.1670000 2
20903 20904 20906 20907 1 180.0000771 15.1670000 2
20903 20904 20906 20908 1 180.0000771 15.1670000 2
20905 20904 20906 20907 1 180.0000771 15.1670000 2
20905 20904 20906 20908 1 180.0000771 15.1670000 2
20904 20906 20908 20909 1 180.0000771 15.1670000 2
20904 20906 20908 20910 1 180.0000771 15.1670000 2
20907 20906 20908 20909 1 180.0000771 15.1670000 2
20907 20906 20908 20910 1 180.0000771 15.1670000 2
20904 20908 20906 20907 4 180.0000771 4.6024000 2
20906 20908 20910 20911 1 180.0000771 15.1670000 2
20906 20908 20910 20912 1 180.0000771 15.1670000 2
20909 20908 20910 20911 1 180.0000771 15.1670000 2
20909 20908 20910 20912 1 180.0000771 15.1670000 2
20906 20910 20908 20909 4 180.0000771 4.6024000 2
20903 20910 20912 20913 4 180.0000771 4.6024000 2
20908 20910 20912 20913 1 180.0000771 15.1670000 2
20911 20910 20912 20913 1 180.0000771 15.1670000 2
20903 20912 20910 20908 1 180.0000771 15.1670000 2
20903 20912 20910 20911 1 180.0000771 15.1670000 2
20908 20912 20910 20911 4 180.0000771 4.6024000 2
20914 20915 20916 20917 1 180.0000771 15.1670000 2
20914 20915 20916 20918 1 180.0000771 15.1670000 2
20917 20915 20916 20918 4 180.0000771 4.6024000 2
20914 20915 20924 20916 4 180.0000771 4.6024000 2
20914 20915 20924 20922 1 180.0000771 15.1670000 2
20914 20915 20924 20925 1 180.0000771 15.1670000 2
20916 20915 20924 20922 1 180.0000771 15.1670000 2
20916 20915 20924 20925 1 180.0000771 15.1670000 2
20917 20916 20915 20924 1 180.0000771 15.1670000 2
20918 20916 20915 20924 1 180.0000771 15.1670000 2
20915 20916 20918 20919 1 180.0000771 15.1670000 2
20915 20916 20918 20920 1 180.0000771 15.1670000 2
20917 20916 20918 20919 1 180.0000771 15.1670000 2
20917 20916 20918 20920 1 180.0000771 15.1670000 2
20916 20918 20920 20921 1 180.0000771 15.1670000 2
20916 20918 20920 20922 1 180.0000771 15.1670000 2
20919 20918 20920 20921 1 180.0000771 15.1670000 2
20919 20918 20920 20922 1 180.0000771 15.1670000 2
20916 20920 20918 20919 4 180.0000771 4.6024000 2
20918 20920 20922 20923 1 180.0000771 15.1670000 2
20918 20920 20922 20924 1 180.0000771 15.1670000 2
20921 20920 20922 20923 1 180.0000771 15.1670000 2
20921 20920 20922 20924 1 180.0000771 15.1670000 2
20918 20922 20920 20921 4 180.0000771 4.6024000 2
20915 20922 20924 20925 4 180.0000771 4.6024000 2
20920 20922 20924 20925 1 180.0000771 15.1670000 2
20923 20922 20924 20925 1 180.0000771 15.1670000 2
20915 20924 20922 20920 1 180.0000771 15.1670000 2
20915 20924 20922 20923 1 180.0000771 15.1670000 2
20920 20924 20922 20923 4 180.0000771 4.6024000 2
20926 20927 20928 20929 1 180.0000771 15.1670000 2
20926 20927 20928 20930 1 180.0000771 15.1670000 2
20929 20927 20928 20930 4 180.0000771 4.6024000 2
20926 20927 20936 20928 4 180.0000771 4.6024000 2
20926 20927 20936 20934 1 180.0000771 15.1670000 2
20926 20927 20936 20937 1 180.0000771 15.1670000 2
20928 20927 20936 20934 1 180.0000771 15.1670000 2
20928 20927 20936 20937 1 180.0000771 15.1670000 2
20929 20928 20927 20936 1 180.0000771 15.1670000 2
20930 20928 20927 20936 1 180.0000771 15.1670000 2
20927 20928 20930 20931 1 180.0000771 15.1670000 2
20927 20928 20930 20932 1 180.0000771 15.1670000 2
20929 20928 20930 20931 1 180.0000771 15.1670000 2
20929 20928 20930 20932 1 180.0000771 15.1670000 2
20928 20930 20932 20933 1 180.0000771 15.1670000 2
20928 20930 20932 20934 1 180.0000771 15.1670000 2
20931 20930 20932 20933 1 180.0000771 15.1670000 2
20931 20930 20932 20934 1 180.0000771 15.1670000 2
20928 20932 20930 20931 4 180.0000771 4.6024000 2
20930 20932 20934 20935 1 180.0000771 15.1670000 2
20930 20932 20934 20936 1 180.0000771 15.1670000 2
20933 20932 20934 20935 1 180.0000771 15.1670000 2
20933 20932 20934 20936 1 180.0000771 15.1670000 2
20930 20934 20932 20933 4 180.0000771 4.6024000 2
20927 20934 20936 20937 4 180.0000771 4.6024000 2
20932 20934 20936 20937 1 180.0000771 15.1670000 2
20935 20934 20936 20937 1 180.0000771 15.1670000 2
20927 20936 20934 20932 1 180.0000771 15.1670000 2
20927 20936 20934 20935 1 180.0000771 15.1670000 2
20932 20936 20934 20935 4 180.0000771 4.6024000 2
20938 20939 20940 20941 1 180.0000771 15.1670000 2
20938 20939 20940 20942 1 180.0000771 15.1670000 2
20941 20939 20940 20942 4 180.0000771 4.6024000 2
20938 20939 20948 20940 4 180.0000771 4.6024000 2
20938 20939 20948 20946 1 180.0000771 15.1670000 2
20938 20939 20948 20949 1 180.0000771 15.1670000 2
20940 20939 20948 20946 1 180.0000771 15.1670000 2
20940 20939 20948 20949 1 180.0000771 15.1670000 2
20941 20940 20939 20948 1 180.0000771 15.1670000 2
20942 20940 20939 20948 1 180.0000771 15.1670000 2
20939 20940 20942 20943 1 180.0000771 15.1670000 2
20939 20940 20942 20944 1 180.0000771 15.1670000 2
20941 20940 20942 20943 1 180.0000771 15.1670000 2
20941 20940 20942 20944 1 180.0000771 15.1670000 2
20940 20942 20944 20945 1 180.0000771 15.1670000 2
20940 20942 20944 20946 1 180.0000771 15.1670000 2
20943 20942 20944 20945 1 180.0000771 15.1670000 2
20943 20942 20944 20946 1 180.0000771 15.1670000 2
20940 20944 20942 20943 4 180.0000771 4.6024000 2
20942 20944 20946 20947 1 180.0000771 15.1670000 2
20942 20944 20946 20948 1 180.0000771 15.1670000 2
20945 20944 20946 20947 1 180.0000771 15.1670000 2
20945 20944 20946 20948 1 180.0000771 15.1670000 2
20942 20946 20944 20945 4 180.0000771 4.6024000 2
20939 20946 20948 20949 4 180.0000771 4.6024000 2
20944 20946 20948 20949 1 180.0000771 15.1670000 2
20947 20946 20948 20949 1 180.0000771 15.1670000 2
20939 20948 20946 20944 1 180.0000771 15.1670000 2
20939 20948 20946 20947 1 180.0000771 15.1670000 2
20944 20948 20946 20947 4 180.0000771 4.6024000 2
20950 20951 20952 20953 1 180.0000771 15.1670000 2
20950 20951 20952 20954 1 180.0000771 15.1670000 2
20953 20951 20952 20954 4 180.0000771 4.6024000 2
20950 20951 20960 20952 4 180.0000771 4.6024000 2
20950 20951 20960 20958 1 180.0000771 15.1670000 2
20950 20951 20960 20961 1 180.0000771 15.1670000 2
20952 20951 20960 20958 1 180.0000771 15.1670000 2
20952 20951 20960 20961 1 180.0000771 15.1670000 2
20953 20952 20951 20960 1 180.0000771 15.1670000 2
20954 20952 20951 20960 1 180.0000771 15.1670000 2
20951 20952 20954 20955 1 180.0000771 15.1670000 2
20951 20952 20954 20956 1 180.0000771 15.1670000 2
20953 20952 20954 20955 1 180.0000771 15.1670000 2
20953 20952 20954 20956 1 180.0000771 15.1670000 2
20952 20954 20956 20957 1 180.0000771 15.1670000 2
20952 20954 20956 20958 1 180.0000771 15.1670000 2
20955 20954 20956 20957 1 180.0000771 15.1670000 2
20955 20954 20956 20958 1 180.0000771 15.1670000 2
20952 20956 20954 20955 4 180.0000771 4.6024000 2
20954 20956 20958 20959 1 180.0000771 15.1670000 2
20954 20956 20958 20960 1 180.0000771 15.1670000 2
20957 20956 20958 20959 1 180.0000771 15.1670000 2
20957 20956 20958 20960 1 180.0000771 15.1670000 2
20954 20958 20956 20957 4 180.0000771 4.6024000 2
20951 20958 20960 20961 4 180.0000771 4.6024000 2
20956 20958 20960 20961 1 180.0000771 15.1670000 2
20959 20958 20960 20961 1 180.0000771 15.1670000 2
20951 20960 20958 20956 1 180.0000771 15.1670000 2
20951 20960 20958 20959 1 180.0000771 15.1670000 2
20956 20960 20958 20959 4 180.0000771 4.6024000 2
20962 20963 20964 20965 1 180.0000771 15.1670000 2
20962 20963 20964 20966 1 180.0000771 15.1670000 2
20965 20963 20964 20966 4 180.0000771 4.6024000 2
20962 20963 20972 20964 4 180.0000771 4.6024000 2
20962 20963 20972 20970 1 180.0000771 15.1670000 2
20962 20963 20972 20973 1 180.0000771 15.1670000 2
20964 20963 20972 20970 1 180.0000771 15.1670000 2
20964 20963 20972 20973 1 180.0000771 15.1670000 2
20965 20964 20963 20972 1 180.0000771 15.1670000 2
20966 20964 20963 20972 1 180.0000771 15.1670000 2
20963 20964 20966 20967 1 180.0000771 15.1670000 2
20963 20964 20966 20968 1 180.0000771 15.1670000 2
20965 20964 20966 20967 1 180.0000771 15.1670000 2
20965 20964 20966 20968 1 180.0000771 15.1670000 2
20964 20966 20968 20969 1 180.0000771 15.1670000 2
20964 20966 20968 20970 1 180.0000771 15.1670000 2
20967 20966 20968 20969 1 180.0000771 15.1670000 2
20967 20966 20968 20970 1 180.0000771 15.1670000 2
20964 20968 20966 20967 4 180.0000771 4.6024000 2
20966 20968 20970 20971 1 180.0000771 15.1670000 2
20966 20968 20970 20972 1 180.0000771 15.1670000 2
20969 20968 20970 20971 1 180.0000771 15.1670000 2
20969 20968 20970 20972 1 180.0000771 15.1670000 2
20966 20970 20968 20969 4 180.0000771 4.6024000 2
20963 20970 20972 20973 4 180.0000771 4.6024000 2
20968 20970 20972 20973 1 180.0000771 15.1670000 2
20971 20970 20972 20973 1 180.0000771 15.1670000 2
20963 20972 20970 20968 1 180.0000771 15.1670000 2
20963 20972 20970 20971 1 180.0000771 15.1670000 2
20968 20972 20970 20971 4 180.0000771 4.6024000 2
20974 20975 20976 20977 1 180.0000771 15.1670000 2
20974 20975 20976 20978 1 180.0000771 15.1670000 2
20977 20975 20976 20978 4 180.0000771 4.6024000 2
20974 20975 20984 20976 4 180.0000771 4.6024000 2
20974 20975 20984 20982 1 180.0000771 15.1670000 2
20974 20975 20984 20985 1 180.0000771 15.1670000 2
20976 20975 20984 20982 1 180.0000771 15.1670000 2
20976 20975 20984 20985 1 180.0000771 15.1670000 2
20977 20976 20975 20984 1 180.0000771 15.1670000 2
20978 20976 20975 20984 1 180.0000771 15.1670000 2
20975 20976 20978 20979 1 180.0000771 15.1670000 2
20975 20976 20978 20980 1 180.0000771 15.1670000 2
20977 20976 20978 20979 1 180.0000771 15.1670000 2
20977 20976 20978 20980 1 180.0000771 15.1670000 2
20976 20978 20980 20981 1 180.0000771 15.1670000 2
20976 20978 20980 20982 1 180.0000771 15.1670000 2
20979 20978 20980 20981 1 180.0000771 15.1670000 2
20979 20978 20980 20982 1 180.0000771 15.1670000 2
20976 20980 20978 20979 4 180.0000771 4.6024000 2
20978 20980 20982 20983 1 180.0000771 15.1670000 2
20978 20980 20982 20984 1 180.0000771 15.1670000 2
20981 20980 20982 20983 1 180.0000771 15.1670000 2
20981 20980 20982 20984 1 180.0000771 15.1670000 2
20978 20982 20980 20981 4 180.0000771 4.6024000 2
20975 20982 20984 20985 4 180.0000771 4.6024000 2
20980 20982 20984 20985 1 180.0000771 15.1670000 2
20983 20982 20984 20985 1 180.0000771 15.1670000 2
20975 20984 20982 20980 1 180.0000771 15.1670000 2
20975 20984 20982 20983 1 180.0000771 15.1670000 2
20980 20984 20982 20983 4 180.0000771 4.6024000 2
20986 20987 20988 20989 1 180.0000771 15.1670000 2
20986 20987 20988 20990 1 180.0000771 15.1670000 2
20989 20987 20988 20990 4 180.0000771 4.6024000 2
20986 20987 20996 20988 4 180.0000771 4.6024000 2
20986 20987 20996 20994 1 180.0000771 15.1670000 2
20986 20987 20996 20997 1 180.0000771 15.1670000 2
20988 20987 20996 20994 1 180.0000771 15.1670000 2
20988 20987 20996 20997 1 180.0000771 15.1670000 2
20989 20988 20987 20996 1 180.0000771 15.1670000 2
20990 20988 20987 20996 1 180.0000771 15.1670000 2
20987 20988 20990 20991 1 180.0000771 15.1670000 2
20987 20988 20990 20992 1 180.0000771 15.1670000 2
20989 20988 20990 20991 1 180.0000771 15.1670000 2
20989 20988 20990 20992 1 180.0000771 15.1670000 2
20988 20990 20992 20993 1 180.0000771 15.1670000 2
20988 20990 20992 20994 1 180.0000771 15.1670000 2
20991 20990 20992 20993 1 180.0000771 15.1670000 2
20991 20990 20992 20994 1 180.0000771 15.1670000 2
20988 20992 20990 20991 4 180.0000771 4.6024000 2
20990 20992 20994 20995 1 180.0000771 15.1670000 2
20990 20992 20994 20996 1 180.0000771 15.1670000 2
20993 20992 20994 20995 1 180.0000771 15.1670000 2
20993 20992 20994 20996 1 180.0000771 15.1670000 2
20990 20994 20992 20993 4 180.0000771 4.6024000 2
20987 20994 20996 20997 4 180.0000771 4.6024000 2
20992 20994 20996 20997 1 180.0000771 15.1670000 2
20995 20994 20996 20997 1 180.0000771 15.1670000 2
20987 20996 20994 20992 1 180.0000771 15.1670000 2
20987 20996 20994 20995 1 180.0000771 15.1670000 2
20992 20996 20994 20995 4 180.0000771 4.6024000 2
20998 20999 21000 21001 1 180.0000771 15.1670000 2
20998 20999 21000 21002 1 180.0000771 15.1670000 2
21001 20999 21000 21002 4 180.0000771 4.6024000 2
20998 20999 21008 21000 4 180.0000771 4.6024000 2
20998 20999 21008 21006 1 180.0000771 15.1670000 2
20998 20999 21008 21009 1 180.0000771 15.1670000 2
21000 20999 21008 21006 1 180.0000771 15.1670000 2
21000 20999 21008 21009 1 180.0000771 15.1670000 2
21001 21000 20999 21008 1 180.0000771 15.1670000 2
21002 21000 20999 21008 1 180.0000771 15.1670000 2
20999 21000 21002 21003 1 180.0000771 15.1670000 2
20999 21000 21002 21004 1 180.0000771 15.1670000 2
21001 21000 21002 21003 1 180.0000771 15.1670000 2
21001 21000 21002 21004 1 180.0000771 15.1670000 2
21000 21002 21004 21005 1 180.0000771 15.1670000 2
21000 21002 21004 21006 1 180.0000771 15.1670000 2
21003 21002 21004 21005 1 180.0000771 15.1670000 2
21003 21002 21004 21006 1 180.0000771 15.1670000 2
21000 21004 21002 21003 4 180.0000771 4.6024000 2
21002 21004 21006 21007 1 180.0000771 15.1670000 2
21002 21004 21006 21008 1 180.0000771 15.1670000 2
21005 21004 21006 21007 1 180.0000771 15.1670000 2
21005 21004 21006 21008 1 180.0000771 15.1670000 2
21002 21006 21004 21005 4 180.0000771 4.6024000 2
20999 21006 21008 21009 4 180.0000771 4.6024000 2
21004 21006 21008 21009 1 180.0000771 15.1670000 2
21007 21006 21008 21009 1 180.0000771 15.1670000 2
20999 21008 21006 21004 1 180.0000771 15.1670000 2
20999 21008 21006 21007 1 180.0000771 15.1670000 2
21004 21008 21006 21007 4 180.0000771 4.6024000 2
21010 21011 21012 21013 1 180.0000771 15.1670000 2
21010 21011 21012 21014 1 180.0000771 15.1670000 2
21013 21011 21012 21014 4 180.0000771 4.6024000 2
21010 21011 21020 21012 4 180.0000771 4.6024000 2
21010 21011 21020 21018 1 180.0000771 15.1670000 2
21010 21011 21020 21021 1 180.0000771 15.1670000 2
21012 21011 21020 21018 1 180.0000771 15.1670000 2
21012 21011 21020 21021 1 180.0000771 15.1670000 2
21013 21012 21011 21020 1 180.0000771 15.1670000 2
21014 21012 21011 21020 1 180.0000771 15.1670000 2
21011 21012 21014 21015 1 180.0000771 15.1670000 2
21011 21012 21014 21016 1 180.0000771 15.1670000 2
21013 21012 21014 21015 1 180.0000771 15.1670000 2
21013 21012 21014 21016 1 180.0000771 15.1670000 2
21012 21014 21016 21017 1 180.0000771 15.1670000 2
21012 21014 21016 21018 1 180.0000771 15.1670000 2
21015 21014 21016 21017 1 180.0000771 15.1670000 2
21015 21014 21016 21018 1 180.0000771 15.1670000 2
21012 21016 21014 21015 4 180.0000771 4.6024000 2
21014 21016 21018 21019 1 180.0000771 15.1670000 2
21014 21016 21018 21020 1 180.0000771 15.1670000 2
21017 21016 21018 21019 1 180.0000771 15.1670000 2
21017 21016 21018 21020 1 180.0000771 15.1670000 2
21014 21018 21016 21017 4 180.0000771 4.6024000 2
21011 21018 21020 21021 4 180.0000771 4.6024000 2
21016 21018 21020 21021 1 180.0000771 15.1670000 2
21019 21018 21020 21021 1 180.0000771 15.1670000 2
21011 21020 21018 21016 1 180.0000771 15.1670000 2
21011 21020 21018 21019 1 180.0000771 15.1670000 2
21016 21020 21018 21019 4 180.0000771 4.6024000 2
21022 21023 21024 21025 1 180.0000771 15.1670000 2
21022 21023 21024 21026 1 180.0000771 15.1670000 2
21025 21023 21024 21026 4 180.0000771 4.6024000 2
21022 21023 21032 21024 4 180.0000771 4.6024000 2
21022 21023 21032 21030 1 180.0000771 15.1670000 2
21022 21023 21032 21033 1 180.0000771 15.1670000 2
21024 21023 21032 21030 1 180.0000771 15.1670000 2
21024 21023 21032 21033 1 180.0000771 15.1670000 2
21025 21024 21023 21032 1 180.0000771 15.1670000 2
21026 21024 21023 21032 1 180.0000771 15.1670000 2
21023 21024 21026 21027 1 180.0000771 15.1670000 2
21023 21024 21026 21028 1 180.0000771 15.1670000 2
21025 21024 21026 21027 1 180.0000771 15.1670000 2
21025 21024 21026 21028 1 180.0000771 15.1670000 2
21024 21026 21028 21029 1 180.0000771 15.1670000 2
21024 21026 21028 21030 1 180.0000771 15.1670000 2
21027 21026 21028 21029 1 180.0000771 15.1670000 2
21027 21026 21028 21030 1 180.0000771 15.1670000 2
21024 21028 21026 21027 4 180.0000771 4.6024000 2
21026 21028 21030 21031 1 180.0000771 15.1670000 2
21026 21028 21030 21032 1 180.0000771 15.1670000 2
21029 21028 21030 21031 1 180.0000771 15.1670000 2
21029 21028 21030 21032 1 180.0000771 15.1670000 2
21026 21030 21028 21029 4 180.0000771 4.6024000 2
21023 21030 21032 21033 4 180.0000771 4.6024000 2
21028 21030 21032 21033 1 180.0000771 15.1670000 2
21031 21030 21032 21033 1 180.0000771 15.1670000 2
21023 21032 21030 21028 1 180.0000771 15.1670000 2
21023 21032 21030 21031 1 180.0000771 15.1670000 2
21028 21032 21030 21031 4 180.0000771 4.6024000 2
21034 21035 21036 21037 1 180.0000771 15.1670000 2
21034 21035 21036 21038 1 180.0000771 15.1670000 2
21037 21035 21036 21038 4 180.0000771 4.6024000 2
21034 21035 21044 21036 4 180.0000771 4.6024000 2
21034 21035 21044 21042 1 180.0000771 15.1670000 2
21034 21035 21044 21045 1 180.0000771 15.1670000 2
21036 21035 21044 21042 1 180.0000771 15.1670000 2
21036 21035 21044 21045 1 180.0000771 15.1670000 2
21037 21036 21035 21044 1 180.0000771 15.1670000 2
21038 21036 21035 21044 1 180.0000771 15.1670000 2
21035 21036 21038 21039 1 180.0000771 15.1670000 2
21035 21036 21038 21040 1 180.0000771 15.1670000 2
21037 21036 21038 21039 1 180.0000771 15.1670000 2
21037 21036 21038 21040 1 180.0000771 15.1670000 2
21036 21038 21040 21041 1 180.0000771 15.1670000 2
21036 21038 21040 21042 1 180.0000771 15.1670000 2
21039 21038 21040 21041 1 180.0000771 15.1670000 2
21039 21038 21040 21042 1 180.0000771 15.1670000 2
21036 21040 21038 21039 4 180.0000771 4.6024000 2
21038 21040 21042 21043 1 180.0000771 15.1670000 2
21038 21040 21042 21044 1 180.0000771 15.1670000 2
21041 21040 21042 21043 1 180.0000771 15.1670000 2
21041 21040 21042 21044 1 180.0000771 15.1670000 2
21038 21042 21040 21041 4 180.0000771 4.6024000 2
21035 21042 21044 21045 4 180.0000771 4.6024000 2
21040 21042 21044 21045 1 180.0000771 15.1670000 2
21043 21042 21044 21045 1 180.0000771 15.1670000 2
21035 21044 21042 21040 1 180.0000771 15.1670000 2
21035 21044 21042 21043 1 180.0000771 15.1670000 2
21040 21044 21042 21043 4 180.0000771 4.6024000 2
21046 21047 21048 21049 1 180.0000771 15.1670000 2
21046 21047 21048 21050 1 180.0000771 15.1670000 2
21049 21047 21048 21050 4 180.0000771 4.6024000 2
21046 21047 21056 21048 4 180.0000771 4.6024000 2
21046 21047 21056 21054 1 180.0000771 15.1670000 2
21046 21047 21056 21057 1 180.0000771 15.1670000 2
21048 21047 21056 21054 1 180.0000771 15.1670000 2
21048 21047 21056 21057 1 180.0000771 15.1670000 2
21049 21048 21047 21056 1 180.0000771 15.1670000 2
21050 21048 21047 21056 1 180.0000771 15.1670000 2
21047 21048 21050 21051 1 180.0000771 15.1670000 2
21047 21048 21050 21052 1 180.0000771 15.1670000 2
21049 21048 21050 21051 1 180.0000771 15.1670000 2
21049 21048 21050 21052 1 180.0000771 15.1670000 2
21048 21050 21052 21053 1 180.0000771 15.1670000 2
21048 21050 21052 21054 1 180.0000771 15.1670000 2
21051 21050 21052 21053 1 180.0000771 15.1670000 2
21051 21050 21052 21054 1 180.0000771 15.1670000 2
21048 21052 21050 21051 4 180.0000771 4.6024000 2
21050 21052 21054 21055 1 180.0000771 15.1670000 2
21050 21052 21054 21056 1 180.0000771 15.1670000 2
21053 21052 21054 21055 1 180.0000771 15.1670000 2
21053 21052 21054 21056 1 180.0000771 15.1670000 2
21050 21054 21052 21053 4 180.0000771 4.6024000 2
21047 21054 21056 21057 4 180.0000771 4.6024000 2
21052 21054 21056 21057 1 180.0000771 15.1670000 2
21055 21054 21056 21057 1 180.0000771 15.1670000 2
21047 21056 21054 21052 1 180.0000771 15.1670000 2
21047 21056 21054 21055 1 180.0000771 15.1670000 2
21052 21056 21054 21055 4 180.0000771 4.6024000 2
21058 21059 21060 21061 1 180.0000771 15.1670000 2
21058 21059 21060 21062 1 180.0000771 15.1670000 2
21061 21059 21060 21062 4 180.0000771 4.6024000 2
21058 21059 21068 21060 4 180.0000771 4.6024000 2
21058 21059 21068 21066 1 180.0000771 15.1670000 2
21058 21059 21068 21069 1 180.0000771 15.1670000 2
21060 21059 21068 21066 1 180.0000771 15.1670000 2
21060 21059 21068 21069 1 180.0000771 15.1670000 2
21061 21060 21059 21068 1 180.0000771 15.1670000 2
21062 21060 21059 21068 1 180.0000771 15.1670000 2
21059 21060 21062 21063 1 180.0000771 15.1670000 2
21059 21060 21062 21064 1 180.0000771 15.1670000 2
21061 21060 21062 21063 1 180.0000771 15.1670000 2
21061 21060 21062 21064 1 180.0000771 15.1670000 2
21060 21062 21064 21065 1 180.0000771 15.1670000 2
21060 21062 21064 21066 1 180.0000771 15.1670000 2
21063 21062 21064 21065 1 180.0000771 15.1670000 2
21063 21062 21064 21066 1 180.0000771 15.1670000 2
21060 21064 21062 21063 4 180.0000771 4.6024000 2
21062 21064 21066 21067 1 180.0000771 15.1670000 2
21062 21064 21066 21068 1 180.0000771 15.1670000 2
21065 21064 21066 21067 1 180.0000771 15.1670000 2
21065 21064 21066 21068 1 180.0000771 15.1670000 2
21062 21066 21064 21065 4 180.0000771 4.6024000 2
21059 21066 21068 21069 4 180.0000771 4.6024000 2
21064 21066 21068 21069 1 180.0000771 15.1670000 2
21067 21066 21068 21069 1 180.0000771 15.1670000 2
21059 21068 21066 21064 1 180.0000771 15.1670000 2
21059 21068 21066 21067 1 180.0000771 15.1670000 2
21064 21068 21066 21067 4 180.0000771 4.6024000 2
21070 21071 21072 21073 1 180.0000771 15.1670000 2
21070 21071 21072 21074 1 180.0000771 15.1670000 2
21073 21071 21072 21074 4 180.0000771 4.6024000 2
21070 21071 21080 21072 4 180.0000771 4.6024000 2
21070 21071 21080 21078 1 180.0000771 15.1670000 2
21070 21071 21080 21081 1 180.0000771 15.1670000 2
21072 21071 21080 21078 1 180.0000771 15.1670000 2
21072 21071 21080 21081 1 180.0000771 15.1670000 2
21073 21072 21071 21080 1 180.0000771 15.1670000 2
21074 21072 21071 21080 1 180.0000771 15.1670000 2
21071 21072 21074 21075 1 180.0000771 15.1670000 2
21071 21072 21074 21076 1 180.0000771 15.1670000 2
21073 21072 21074 21075 1 180.0000771 15.1670000 2
21073 21072 21074 21076 1 180.0000771 15.1670000 2
21072 21074 21076 21077 1 180.0000771 15.1670000 2
21072 21074 21076 21078 1 180.0000771 15.1670000 2
21075 21074 21076 21077 1 180.0000771 15.1670000 2
21075 21074 21076 21078 1 180.0000771 15.1670000 2
21072 21076 21074 21075 4 180.0000771 4.6024000 2
21074 21076 21078 21079 1 180.0000771 15.1670000 2
21074 21076 21078 21080 1 180.0000771 15.1670000 2
21077 21076 21078 21079 1 180.0000771 15.1670000 2
21077 21076 21078 21080 1 180.0000771 15.1670000 2
21074 21078 21076 21077 4 180.0000771 4.6024000 2
21071 21078 21080 21081 4 180.0000771 4.6024000 2
21076 21078 21080 21081 1 180.0000771 15.1670000 2
21079 21078 21080 21081 1 180.0000771 15.1670000 2
21071 21080 21078 21076 1 180.0000771 15.1670000 2
21071 21080 21078 21079 1 180.0000771 15.1670000 2
21076 21080 21078 21079 4 180.0000771 4.6024000 2
21082 21083 21084 21085 1 180.0000771 15.1670000 2
21082 21083 21084 21086 1 180.0000771 15.1670000 2
21085 21083 21084 21086 4 180.0000771 4.6024000 2
21082 21083 21092 21084 4 180.0000771 4.6024000 2
21082 21083 21092 21090 1 180.0000771 15.1670000 2
21082 21083 21092 21093 1 180.0000771 15.1670000 2
21084 21083 21092 21090 1 180.0000771 15.1670000 2
21084 21083 21092 21093 1 180.0000771 15.1670000 2
21085 21084 21083 21092 1 180.0000771 15.1670000 2
21086 21084 21083 21092 1 180.0000771 15.1670000 2
21083 21084 21086 21087 1 180.0000771 15.1670000 2
21083 21084 21086 21088 1 180.0000771 15.1670000 2
21085 21084 21086 21087 1 180.0000771 15.1670000 2
21085 21084 21086 21088 1 180.0000771 15.1670000 2
21084 21086 21088 21089 1 180.0000771 15.1670000 2
21084 21086 21088 21090 1 180.0000771 15.1670000 2
21087 21086 21088 21089 1 180.0000771 15.1670000 2
21087 21086 21088 21090 1 180.0000771 15.1670000 2
21084 21088 21086 21087 4 180.0000771 4.6024000 2
21086 21088 21090 21091 1 180.0000771 15.1670000 2
21086 21088 21090 21092 1 180.0000771 15.1670000 2
21089 21088 21090 21091 1 180.0000771 15.1670000 2
21089 21088 21090 21092 1 180.0000771 15.1670000 2
21086 21090 21088 21089 4 180.0000771 4.6024000 2
21083 21090 21092 21093 4 180.0000771 4.6024000 2
21088 21090 21092 21093 1 180.0000771 15.1670000 2
21091 21090 21092 21093 1 180.0000771 15.1670000 2
21083 21092 21090 21088 1 180.0000771 15.1670000 2
21083 21092 21090 21091 1 180.0000771 15.1670000 2
21088 21092 21090 21091 4 180.0000771 4.6024000 2
21094 21095 21096 21097 1 180.0000771 15.1670000 2
21094 21095 21096 21098 1 180.0000771 15.1670000 2
21097 21095 21096 21098 4 180.0000771 4.6024000 2
21094 21095 21104 21096 4 180.0000771 4.6024000 2
21094 21095 21104 21102 1 180.0000771 15.1670000 2
21094 21095 21104 21105 1 180.0000771 15.1670000 2
21096 21095 21104 21102 1 180.0000771 15.1670000 2
21096 21095 21104 21105 1 180.0000771 15.1670000 2
21097 21096 21095 21104 1 180.0000771 15.1670000 2
21098 21096 21095 21104 1 180.0000771 15.1670000 2
21095 21096 21098 21099 1 180.0000771 15.1670000 2
21095 21096 21098 21100 1 180.0000771 15.1670000 2
21097 21096 21098 21099 1 180.0000771 15.1670000 2
21097 21096 21098 21100 1 180.0000771 15.1670000 2
21096 21098 21100 21101 1 180.0000771 15.1670000 2
21096 21098 21100 21102 1 180.0000771 15.1670000 2
21099 21098 21100 21101 1 180.0000771 15.1670000 2
21099 21098 21100 21102 1 180.0000771 15.1670000 2
21096 21100 21098 21099 4 180.0000771 4.6024000 2
21098 21100 21102 21103 1 180.0000771 15.1670000 2
21098 21100 21102 21104 1 180.0000771 15.1670000 2
21101 21100 21102 21103 1 180.0000771 15.1670000 2
21101 21100 21102 21104 1 180.0000771 15.1670000 2
21098 21102 21100 21101 4 180.0000771 4.6024000 2
21095 21102 21104 21105 4 180.0000771 4.6024000 2
21100 21102 21104 21105 1 180.0000771 15.1670000 2
21103 21102 21104 21105 1 180.0000771 15.1670000 2
21095 21104 21102 21100 1 180.0000771 15.1670000 2
21095 21104 21102 21103 1 180.0000771 15.1670000 2
21100 21104 21102 21103 4 180.0000771 4.6024000 2
21106 21107 21108 21109 1 180.0000771 15.1670000 2
21106 21107 21108 21110 1 180.0000771 15.1670000 2
21109 21107 21108 21110 4 180.0000771 4.6024000 2
21106 21107 21116 21108 4 180.0000771 4.6024000 2
21106 21107 21116 21114 1 180.0000771 15.1670000 2
21106 21107 21116 21117 1 180.0000771 15.1670000 2
21108 21107 21116 21114 1 180.0000771 15.1670000 2
21108 21107 21116 21117 1 180.0000771 15.1670000 2
21109 21108 21107 21116 1 180.0000771 15.1670000 2
21110 21108 21107 21116 1 180.0000771 15.1670000 2
21107 21108 21110 21111 1 180.0000771 15.1670000 2
21107 21108 21110 21112 1 180.0000771 15.1670000 2
21109 21108 21110 21111 1 180.0000771 15.1670000 2
21109 21108 21110 21112 1 180.0000771 15.1670000 2
21108 21110 21112 21113 1 180.0000771 15.1670000 2
21108 21110 21112 21114 1 180.0000771 15.1670000 2
21111 21110 21112 21113 1 180.0000771 15.1670000 2
21111 21110 21112 21114 1 180.0000771 15.1670000 2
21108 21112 21110 21111 4 180.0000771 4.6024000 2
21110 21112 21114 21115 1 180.0000771 15.1670000 2
21110 21112 21114 21116 1 180.0000771 15.1670000 2
21113 21112 21114 21115 1 180.0000771 15.1670000 2
21113 21112 21114 21116 1 180.0000771 15.1670000 2
21110 21114 21112 21113 4 180.0000771 4.6024000 2
21107 21114 21116 21117 4 180.0000771 4.6024000 2
21112 21114 21116 21117 1 180.0000771 15.1670000 2
21115 21114 21116 21117 1 180.0000771 15.1670000 2
21107 21116 21114 21112 1 180.0000771 15.1670000 2
21107 21116 21114 21115 1 180.0000771 15.1670000 2
21112 21116 21114 21115 4 180.0000771 4.6024000 2
21118 21119 21120 21121 1 180.0000771 15.1670000 2
21118 21119 21120 21122 1 180.0000771 15.1670000 2
21121 21119 21120 21122 4 180.0000771 4.6024000 2
21118 21119 21128 21120 4 180.0000771 4.6024000 2
21118 21119 21128 21126 1 180.0000771 15.1670000 2
21118 21119 21128 21129 1 180.0000771 15.1670000 2
21120 21119 21128 21126 1 180.0000771 15.1670000 2
21120 21119 21128 21129 1 180.0000771 15.1670000 2
21121 21120 21119 21128 1 180.0000771 15.1670000 2
21122 21120 21119 21128 1 180.0000771 15.1670000 2
21119 21120 21122 21123 1 180.0000771 15.1670000 2
21119 21120 21122 21124 1 180.0000771 15.1670000 2
21121 21120 21122 21123 1 180.0000771 15.1670000 2
21121 21120 21122 21124 1 180.0000771 15.1670000 2
21120 21122 21124 21125 1 180.0000771 15.1670000 2
21120 21122 21124 21126 1 180.0000771 15.1670000 2
21123 21122 21124 21125 1 180.0000771 15.1670000 2
21123 21122 21124 21126 1 180.0000771 15.1670000 2
21120 21124 21122 21123 4 180.0000771 4.6024000 2
21122 21124 21126 21127 1 180.0000771 15.1670000 2
21122 21124 21126 21128 1 180.0000771 15.1670000 2
21125 21124 21126 21127 1 180.0000771 15.1670000 2
21125 21124 21126 21128 1 180.0000771 15.1670000 2
21122 21126 21124 21125 4 180.0000771 4.6024000 2
21119 21126 21128 21129 4 180.0000771 4.6024000 2
21124 21126 21128 21129 1 180.0000771 15.1670000 2
21127 21126 21128 21129 1 180.0000771 15.1670000 2
21119 21128 21126 21124 1 180.0000771 15.1670000 2
21119 21128 21126 21127 1 180.0000771 15.1670000 2
21124 21128 21126 21127 4 180.0000771 4.6024000 2
21130 21131 21132 21133 1 180.0000771 15.1670000 2
21130 21131 21132 21134 1 180.0000771 15.1670000 2
21133 21131 21132 21134 4 180.0000771 4.6024000 2
21130 21131 21140 21132 4 180.0000771 4.6024000 2
21130 21131 21140 21138 1 180.0000771 15.1670000 2
21130 21131 21140 21141 1 180.0000771 15.1670000 2
21132 21131 21140 21138 1 180.0000771 15.1670000 2
21132 21131 21140 21141 1 180.0000771 15.1670000 2
21133 21132 21131 21140 1 180.0000771 15.1670000 2
21134 21132 21131 21140 1 180.0000771 15.1670000 2
21131 21132 21134 21135 1 180.0000771 15.1670000 2
21131 21132 21134 21136 1 180.0000771 15.1670000 2
21133 21132 21134 21135 1 180.0000771 15.1670000 2
21133 21132 21134 21136 1 180.0000771 15.1670000 2
21132 21134 21136 21137 1 180.0000771 15.1670000 2
21132 21134 21136 21138 1 180.0000771 15.1670000 2
21135 21134 21136 21137 1 180.0000771 15.1670000 2
21135 21134 21136 21138 1 180.0000771 15.1670000 2
21132 21136 21134 21135 4 180.0000771 4.6024000 2
21134 21136 21138 21139 1 180.0000771 15.1670000 2
21134 21136 21138 21140 1 180.0000771 15.1670000 2
21137 21136 21138 21139 1 180.0000771 15.1670000 2
21137 21136 21138 21140 1 180.0000771 15.1670000 2
21134 21138 21136 21137 4 180.0000771 4.6024000 2
21131 21138 21140 21141 4 180.0000771 4.6024000 2
21136 21138 21140 21141 1 180.0000771 15.1670000 2
21139 21138 21140 21141 1 180.0000771 15.1670000 2
21131 21140 21138 21136 1 180.0000771 15.1670000 2
21131 21140 21138 21139 1 180.0000771 15.1670000 2
21136 21140 21138 21139 4 180.0000771 4.6024000 2
21142 21143 21144 21145 1 180.0000771 15.1670000 2
21142 21143 21144 21146 1 180.0000771 15.1670000 2
21145 21143 21144 21146 4 180.0000771 4.6024000 2
21142 21143 21152 21144 4 180.0000771 4.6024000 2
21142 21143 21152 21150 1 180.0000771 15.1670000 2
21142 21143 21152 21153 1 180.0000771 15.1670000 2
21144 21143 21152 21150 1 180.0000771 15.1670000 2
21144 21143 21152 21153 1 180.0000771 15.1670000 2
21145 21144 21143 21152 1 180.0000771 15.1670000 2
21146 21144 21143 21152 1 180.0000771 15.1670000 2
21143 21144 21146 21147 1 180.0000771 15.1670000 2
21143 21144 21146 21148 1 180.0000771 15.1670000 2
21145 21144 21146 21147 1 180.0000771 15.1670000 2
21145 21144 21146 21148 1 180.0000771 15.1670000 2
21144 21146 21148 21149 1 180.0000771 15.1670000 2
21144 21146 21148 21150 1 180.0000771 15.1670000 2
21147 21146 21148 21149 1 180.0000771 15.1670000 2
21147 21146 21148 21150 1 180.0000771 15.1670000 2
21144 21148 21146 21147 4 180.0000771 4.6024000 2
21146 21148 21150 21151 1 180.0000771 15.1670000 2
21146 21148 21150 21152 1 180.0000771 15.1670000 2
21149 21148 21150 21151 1 180.0000771 15.1670000 2
21149 21148 21150 21152 1 180.0000771 15.1670000 2
21146 21150 21148 21149 4 180.0000771 4.6024000 2
21143 21150 21152 21153 4 180.0000771 4.6024000 2
21148 21150 21152 21153 1 180.0000771 15.1670000 2
21151 21150 21152 21153 1 180.0000771 15.1670000 2
21143 21152 21150 21148 1 180.0000771 15.1670000 2
21143 21152 21150 21151 1 180.0000771 15.1670000 2
21148 21152 21150 21151 4 180.0000771 4.6024000 2
21154 21155 21156 21157 1 180.0000771 15.1670000 2
21154 21155 21156 21158 1 180.0000771 15.1670000 2
21157 21155 21156 21158 4 180.0000771 4.6024000 2
21154 21155 21164 21156 4 180.0000771 4.6024000 2
21154 21155 21164 21162 1 180.0000771 15.1670000 2
21154 21155 21164 21165 1 180.0000771 15.1670000 2
21156 21155 21164 21162 1 180.0000771 15.1670000 2
21156 21155 21164 21165 1 180.0000771 15.1670000 2
21157 21156 21155 21164 1 180.0000771 15.1670000 2
21158 21156 21155 21164 1 180.0000771 15.1670000 2
21155 21156 21158 21159 1 180.0000771 15.1670000 2
21155 21156 21158 21160 1 180.0000771 15.1670000 2
21157 21156 21158 21159 1 180.0000771 15.1670000 2
21157 21156 21158 21160 1 180.0000771 15.1670000 2
21156 21158 21160 21161 1 180.0000771 15.1670000 2
21156 21158 21160 21162 1 180.0000771 15.1670000 2
21159 21158 21160 21161 1 180.0000771 15.1670000 2
21159 21158 21160 21162 1 180.0000771 15.1670000 2
21156 21160 21158 21159 4 180.0000771 4.6024000 2
21158 21160 21162 21163 1 180.0000771 15.1670000 2
21158 21160 21162 21164 1 180.0000771 15.1670000 2
21161 21160 21162 21163 1 180.0000771 15.1670000 2
21161 21160 21162 21164 1 180.0000771 15.1670000 2
21158 21162 21160 21161 4 180.0000771 4.6024000 2
21155 21162 21164 21165 4 180.0000771 4.6024000 2
21160 21162 21164 21165 1 180.0000771 15.1670000 2
21163 21162 21164 21165 1 180.0000771 15.1670000 2
21155 21164 21162 21160 1 180.0000771 15.1670000 2
21155 21164 21162 21163 1 180.0000771 15.1670000 2
21160 21164 21162 21163 4 180.0000771 4.6024000 2
21166 21167 21168 21169 1 180.0000771 15.1670000 2
21166 21167 21168 21170 1 180.0000771 15.1670000 2
21169 21167 21168 21170 4 180.0000771 4.6024000 2
21166 21167 21176 21168 4 180.0000771 4.6024000 2
21166 21167 21176 21174 1 180.0000771 15.1670000 2
21166 21167 21176 21177 1 180.0000771 15.1670000 2
21168 21167 21176 21174 1 180.0000771 15.1670000 2
21168 21167 21176 21177 1 180.0000771 15.1670000 2
21169 21168 21167 21176 1 180.0000771 15.1670000 2
21170 21168 21167 21176 1 180.0000771 15.1670000 2
21167 21168 21170 21171 1 180.0000771 15.1670000 2
21167 21168 21170 21172 1 180.0000771 15.1670000 2
21169 21168 21170 21171 1 180.0000771 15.1670000 2
21169 21168 21170 21172 1 180.0000771 15.1670000 2
21168 21170 21172 21173 1 180.0000771 15.1670000 2
21168 21170 21172 21174 1 180.0000771 15.1670000 2
21171 21170 21172 21173 1 180.0000771 15.1670000 2
21171 21170 21172 21174 1 180.0000771 15.1670000 2
21168 21172 21170 21171 4 180.0000771 4.6024000 2
21170 21172 21174 21175 1 180.0000771 15.1670000 2
21170 21172 21174 21176 1 180.0000771 15.1670000 2
21173 21172 21174 21175 1 180.0000771 15.1670000 2
21173 21172 21174 21176 1 180.0000771 15.1670000 2
21170 21174 21172 21173 4 180.0000771 4.6024000 2
21167 21174 21176 21177 4 180.0000771 4.6024000 2
21172 21174 21176 21177 1 180.0000771 15.1670000 2
21175 21174 21176 21177 1 180.0000771 15.1670000 2
21167 21176 21174 21172 1 180.0000771 15.1670000 2
21167 21176 21174 21175 1 180.0000771 15.1670000 2
21172 21176 21174 21175 4 180.0000771 4.6024000 2
21178 21179 21180 21181 1 180.0000771 15.1670000 2
21178 21179 21180 21182 1 180.0000771 15.1670000 2
21181 21179 21180 21182 4 180.0000771 4.6024000 2
21178 21179 21188 21180 4 180.0000771 4.6024000 2
21178 21179 21188 21186 1 180.0000771 15.1670000 2
21178 21179 21188 21189 1 180.0000771 15.1670000 2
21180 21179 21188 21186 1 180.0000771 15.1670000 2
21180 21179 21188 21189 1 180.0000771 15.1670000 2
21181 21180 21179 21188 1 180.0000771 15.1670000 2
21182 21180 21179 21188 1 180.0000771 15.1670000 2
21179 21180 21182 21183 1 180.0000771 15.1670000 2
21179 21180 21182 21184 1 180.0000771 15.1670000 2
21181 21180 21182 21183 1 180.0000771 15.1670000 2
21181 21180 21182 21184 1 180.0000771 15.1670000 2
21180 21182 21184 21185 1 180.0000771 15.1670000 2
21180 21182 21184 21186 1 180.0000771 15.1670000 2
21183 21182 21184 21185 1 180.0000771 15.1670000 2
21183 21182 21184 21186 1 180.0000771 15.1670000 2
21180 21184 21182 21183 4 180.0000771 4.6024000 2
21182 21184 21186 21187 1 180.0000771 15.1670000 2
21182 21184 21186 21188 1 180.0000771 15.1670000 2
21185 21184 21186 21187 1 180.0000771 15.1670000 2
21185 21184 21186 21188 1 180.0000771 15.1670000 2
21182 21186 21184 21185 4 180.0000771 4.6024000 2
21179 21186 21188 21189 4 180.0000771 4.6024000 2
21184 21186 21188 21189 1 180.0000771 15.1670000 2
21187 21186 21188 21189 1 180.0000771 15.1670000 2
21179 21188 21186 21184 1 180.0000771 15.1670000 2
21179 21188 21186 21187 1 180.0000771 15.1670000 2
21184 21188 21186 21187 4 180.0000771 4.6024000 2
21190 21191 21192 21193 1 180.0000771 15.1670000 2
21190 21191 21192 21194 1 180.0000771 15.1670000 2
21193 21191 21192 21194 4 180.0000771 4.6024000 2
21190 21191 21200 21192 4 180.0000771 4.6024000 2
21190 21191 21200 21198 1 180.0000771 15.1670000 2
21190 21191 21200 21201 1 180.0000771 15.1670000 2
21192 21191 21200 21198 1 180.0000771 15.1670000 2
21192 21191 21200 21201 1 180.0000771 15.1670000 2
21193 21192 21191 21200 1 180.0000771 15.1670000 2
21194 21192 21191 21200 1 180.0000771 15.1670000 2
21191 21192 21194 21195 1 180.0000771 15.1670000 2
21191 21192 21194 21196 1 180.0000771 15.1670000 2
21193 21192 21194 21195 1 180.0000771 15.1670000 2
21193 21192 21194 21196 1 180.0000771 15.1670000 2
21192 21194 21196 21197 1 180.0000771 15.1670000 2
21192 21194 21196 21198 1 180.0000771 15.1670000 2
21195 21194 21196 21197 1 180.0000771 15.1670000 2
21195 21194 21196 21198 1 180.0000771 15.1670000 2
21192 21196 21194 21195 4 180.0000771 4.6024000 2
21194 21196 21198 21199 1 180.0000771 15.1670000 2
21194 21196 21198 21200 1 180.0000771 15.1670000 2
21197 21196 21198 21199 1 180.0000771 15.1670000 2
21197 21196 21198 21200 1 180.0000771 15.1670000 2
21194 21198 21196 21197 4 180.0000771 4.6024000 2
21191 21198 21200 21201 4 180.0000771 4.6024000 2
21196 21198 21200 21201 1 180.0000771 15.1670000 2
21199 21198 21200 21201 1 180.0000771 15.1670000 2
21191 21200 21198 21196 1 180.0000771 15.1670000 2
21191 21200 21198 21199 1 180.0000771 15.1670000 2
21196 21200 21198 21199 4 180.0000771 4.6024000 2
21202 21203 21204 21205 1 180.0000771 15.1670000 2
21202 21203 21204 21206 1 180.0000771 15.1670000 2
21205 21203 21204 21206 4 180.0000771 4.6024000 2
21202 21203 21212 21204 4 180.0000771 4.6024000 2
21202 21203 21212 21210 1 180.0000771 15.1670000 2
21202 21203 21212 21213 1 180.0000771 15.1670000 2
21204 21203 21212 21210 1 180.0000771 15.1670000 2
21204 21203 21212 21213 1 180.0000771 15.1670000 2
21205 21204 21203 21212 1 180.0000771 15.1670000 2
21206 21204 21203 21212 1 180.0000771 15.1670000 2
21203 21204 21206 21207 1 180.0000771 15.1670000 2
21203 21204 21206 21208 1 180.0000771 15.1670000 2
21205 21204 21206 21207 1 180.0000771 15.1670000 2
21205 21204 21206 21208 1 180.0000771 15.1670000 2
21204 21206 21208 21209 1 180.0000771 15.1670000 2
21204 21206 21208 21210 1 180.0000771 15.1670000 2
21207 21206 21208 21209 1 180.0000771 15.1670000 2
21207 21206 21208 21210 1 180.0000771 15.1670000 2
21204 21208 21206 21207 4 180.0000771 4.6024000 2
21206 21208 21210 21211 1 180.0000771 15.1670000 2
21206 21208 21210 21212 1 180.0000771 15.1670000 2
21209 21208 21210 21211 1 180.0000771 15.1670000 2
21209 21208 21210 21212 1 180.0000771 15.1670000 2
21206 21210 21208 21209 4 180.0000771 4.6024000 2
21203 21210 21212 21213 4 180.0000771 4.6024000 2
21208 21210 21212 21213 1 180.0000771 15.1670000 2
21211 21210 21212 21213 1 180.0000771 15.1670000 2
21203 21212 21210 21208 1 180.0000771 15.1670000 2
21203 21212 21210 21211 1 180.0000771 15.1670000 2
21208 21212 21210 21211 4 180.0000771 4.6024000 2
21214 21215 21216 21217 1 180.0000771 15.1670000 2
21214 21215 21216 21218 1 180.0000771 15.1670000 2
21217 21215 21216 21218 4 180.0000771 4.6024000 2
21214 21215 21224 21216 4 180.0000771 4.6024000 2
21214 21215 21224 21222 1 180.0000771 15.1670000 2
21214 21215 21224 21225 1 180.0000771 15.1670000 2
21216 21215 21224 21222 1 180.0000771 15.1670000 2
21216 21215 21224 21225 1 180.0000771 15.1670000 2
21217 21216 21215 21224 1 180.0000771 15.1670000 2
21218 21216 21215 21224 1 180.0000771 15.1670000 2
21215 21216 21218 21219 1 180.0000771 15.1670000 2
21215 21216 21218 21220 1 180.0000771 15.1670000 2
21217 21216 21218 21219 1 180.0000771 15.1670000 2
21217 21216 21218 21220 1 180.0000771 15.1670000 2
21216 21218 21220 21221 1 180.0000771 15.1670000 2
21216 21218 21220 21222 1 180.0000771 15.1670000 2
21219 21218 21220 21221 1 180.0000771 15.1670000 2
21219 21218 21220 21222 1 180.0000771 15.1670000 2
21216 21220 21218 21219 4 180.0000771 4.6024000 2
21218 21220 21222 21223 1 180.0000771 15.1670000 2
21218 21220 21222 21224 1 180.0000771 15.1670000 2
21221 21220 21222 21223 1 180.0000771 15.1670000 2
21221 21220 21222 21224 1 180.0000771 15.1670000 2
21218 21222 21220 21221 4 180.0000771 4.6024000 2
21215 21222 21224 21225 4 180.0000771 4.6024000 2
21220 21222 21224 21225 1 180.0000771 15.1670000 2
21223 21222 21224 21225 1 180.0000771 15.1670000 2
21215 21224 21222 21220 1 180.0000771 15.1670000 2
21215 21224 21222 21223 1 180.0000771 15.1670000 2
21220 21224 21222 21223 4 180.0000771 4.6024000 2
21226 21227 21228 21229 1 180.0000771 15.1670000 2
21226 21227 21228 21230 1 180.0000771 15.1670000 2
21229 21227 21228 21230 4 180.0000771 4.6024000 2
21226 21227 21236 21228 4 180.0000771 4.6024000 2
21226 21227 21236 21234 1 180.0000771 15.1670000 2
21226 21227 21236 21237 1 180.0000771 15.1670000 2
21228 21227 21236 21234 1 180.0000771 15.1670000 2
21228 21227 21236 21237 1 180.0000771 15.1670000 2
21229 21228 21227 21236 1 180.0000771 15.1670000 2
21230 21228 21227 21236 1 180.0000771 15.1670000 2
21227 21228 21230 21231 1 180.0000771 15.1670000 2
21227 21228 21230 21232 1 180.0000771 15.1670000 2
21229 21228 21230 21231 1 180.0000771 15.1670000 2
21229 21228 21230 21232 1 180.0000771 15.1670000 2
21228 21230 21232 21233 1 180.0000771 15.1670000 2
21228 21230 21232 21234 1 180.0000771 15.1670000 2
21231 21230 21232 21233 1 180.0000771 15.1670000 2
21231 21230 21232 21234 1 180.0000771 15.1670000 2
21228 21232 21230 21231 4 180.0000771 4.6024000 2
21230 21232 21234 21235 1 180.0000771 15.1670000 2
21230 21232 21234 21236 1 180.0000771 15.1670000 2
21233 21232 21234 21235 1 180.0000771 15.1670000 2
21233 21232 21234 21236 1 180.0000771 15.1670000 2
21230 21234 21232 21233 4 180.0000771 4.6024000 2
21227 21234 21236 21237 4 180.0000771 4.6024000 2
21232 21234 21236 21237 1 180.0000771 15.1670000 2
21235 21234 21236 21237 1 180.0000771 15.1670000 2
21227 21236 21234 21232 1 180.0000771 15.1670000 2
21227 21236 21234 21235 1 180.0000771 15.1670000 2
21232 21236 21234 21235 4 180.0000771 4.6024000 2
21238 21239 21240 21241 1 180.0000771 15.1670000 2
21238 21239 21240 21242 1 180.0000771 15.1670000 2
21241 21239 21240 21242 4 180.0000771 4.6024000 2
21238 21239 21248 21240 4 180.0000771 4.6024000 2
21238 21239 21248 21246 1 180.0000771 15.1670000 2
21238 21239 21248 21249 1 180.0000771 15.1670000 2
21240 21239 21248 21246 1 180.0000771 15.1670000 2
21240 21239 21248 21249 1 180.0000771 15.1670000 2
21241 21240 21239 21248 1 180.0000771 15.1670000 2
21242 21240 21239 21248 1 180.0000771 15.1670000 2
21239 21240 21242 21243 1 180.0000771 15.1670000 2
21239 21240 21242 21244 1 180.0000771 15.1670000 2
21241 21240 21242 21243 1 180.0000771 15.1670000 2
21241 21240 21242 21244 1 180.0000771 15.1670000 2
21240 21242 21244 21245 1 180.0000771 15.1670000 2
21240 21242 21244 21246 1 180.0000771 15.1670000 2
21243 21242 21244 21245 1 180.0000771 15.1670000 2
21243 21242 21244 21246 1 180.0000771 15.1670000 2
21240 21244 21242 21243 4 180.0000771 4.6024000 2
21242 21244 21246 21247 1 180.0000771 15.1670000 2
21242 21244 21246 21248 1 180.0000771 15.1670000 2
21245 21244 21246 21247 1 180.0000771 15.1670000 2
21245 21244 21246 21248 1 180.0000771 15.1670000 2
21242 21246 21244 21245 4 180.0000771 4.6024000 2
21239 21246 21248 21249 4 180.0000771 4.6024000 2
21244 21246 21248 21249 1 180.0000771 15.1670000 2
21247 21246 21248 21249 1 180.0000771 15.1670000 2
21239 21248 21246 21244 1 180.0000771 15.1670000 2
21239 21248 21246 21247 1 180.0000771 15.1670000 2
21244 21248 21246 21247 4 180.0000771 4.6024000 2
21250 21251 21252 21253 1 180.0000771 15.1670000 2
21250 21251 21252 21254 1 180.0000771 15.1670000 2
21253 21251 21252 21254 4 180.0000771 4.6024000 2
21250 21251 21260 21252 4 180.0000771 4.6024000 2
21250 21251 21260 21258 1 180.0000771 15.1670000 2
21250 21251 21260 21261 1 180.0000771 15.1670000 2
21252 21251 21260 21258 1 180.0000771 15.1670000 2
21252 21251 21260 21261 1 180.0000771 15.1670000 2
21253 21252 21251 21260 1 180.0000771 15.1670000 2
21254 21252 21251 21260 1 180.0000771 15.1670000 2
21251 21252 21254 21255 1 180.0000771 15.1670000 2
21251 21252 21254 21256 1 180.0000771 15.1670000 2
21253 21252 21254 21255 1 180.0000771 15.1670000 2
21253 21252 21254 21256 1 180.0000771 15.1670000 2
21252 21254 21256 21257 1 180.0000771 15.1670000 2
21252 21254 21256 21258 1 180.0000771 15.1670000 2
21255 21254 21256 21257 1 180.0000771 15.1670000 2
21255 21254 21256 21258 1 180.0000771 15.1670000 2
21252 21256 21254 21255 4 180.0000771 4.6024000 2
21254 21256 21258 21259 1 180.0000771 15.1670000 2
21254 21256 21258 21260 1 180.0000771 15.1670000 2
21257 21256 21258 21259 1 180.0000771 15.1670000 2
21257 21256 21258 21260 1 180.0000771 15.1670000 2
21254 21258 21256 21257 4 180.0000771 4.6024000 2
21251 21258 21260 21261 4 180.0000771 4.6024000 2
21256 21258 21260 21261 1 180.0000771 15.1670000 2
21259 21258 21260 21261 1 180.0000771 15.1670000 2
21251 21260 21258 21256 1 180.0000771 15.1670000 2
21251 21260 21258 21259 1 180.0000771 15.1670000 2
21256 21260 21258 21259 4 180.0000771 4.6024000 2
21262 21263 21264 21265 1 180.0000771 15.1670000 2
21262 21263 21264 21266 1 180.0000771 15.1670000 2
21265 21263 21264 21266 4 180.0000771 4.6024000 2
21262 21263 21272 21264 4 180.0000771 4.6024000 2
21262 21263 21272 21270 1 180.0000771 15.1670000 2
21262 21263 21272 21273 1 180.0000771 15.1670000 2
21264 21263 21272 21270 1 180.0000771 15.1670000 2
21264 21263 21272 21273 1 180.0000771 15.1670000 2
21265 21264 21263 21272 1 180.0000771 15.1670000 2
21266 21264 21263 21272 1 180.0000771 15.1670000 2
21263 21264 21266 21267 1 180.0000771 15.1670000 2
21263 21264 21266 21268 1 180.0000771 15.1670000 2
21265 21264 21266 21267 1 180.0000771 15.1670000 2
21265 21264 21266 21268 1 180.0000771 15.1670000 2
21264 21266 21268 21269 1 180.0000771 15.1670000 2
21264 21266 21268 21270 1 180.0000771 15.1670000 2
21267 21266 21268 21269 1 180.0000771 15.1670000 2
21267 21266 21268 21270 1 180.0000771 15.1670000 2
21264 21268 21266 21267 4 180.0000771 4.6024000 2
21266 21268 21270 21271 1 180.0000771 15.1670000 2
21266 21268 21270 21272 1 180.0000771 15.1670000 2
21269 21268 21270 21271 1 180.0000771 15.1670000 2
21269 21268 21270 21272 1 180.0000771 15.1670000 2
21266 21270 21268 21269 4 180.0000771 4.6024000 2
21263 21270 21272 21273 4 180.0000771 4.6024000 2
21268 21270 21272 21273 1 180.0000771 15.1670000 2
21271 21270 21272 21273 1 180.0000771 15.1670000 2
21263 21272 21270 21268 1 180.0000771 15.1670000 2
21263 21272 21270 21271 1 180.0000771 15.1670000 2
21268 21272 21270 21271 4 180.0000771 4.6024000 2
21274 21275 21276 21277 1 180.0000771 15.1670000 2
21274 21275 21276 21278 1 180.0000771 15.1670000 2
21277 21275 21276 21278 4 180.0000771 4.6024000 2
21274 21275 21284 21276 4 180.0000771 4.6024000 2
21274 21275 21284 21282 1 180.0000771 15.1670000 2
21274 21275 21284 21285 1 180.0000771 15.1670000 2
21276 21275 21284 21282 1 180.0000771 15.1670000 2
21276 21275 21284 21285 1 180.0000771 15.1670000 2
21277 21276 21275 21284 1 180.0000771 15.1670000 2
21278 21276 21275 21284 1 180.0000771 15.1670000 2
21275 21276 21278 21279 1 180.0000771 15.1670000 2
21275 21276 21278 21280 1 180.0000771 15.1670000 2
21277 21276 21278 21279 1 180.0000771 15.1670000 2
21277 21276 21278 21280 1 180.0000771 15.1670000 2
21276 21278 21280 21281 1 180.0000771 15.1670000 2
21276 21278 21280 21282 1 180.0000771 15.1670000 2
21279 21278 21280 21281 1 180.0000771 15.1670000 2
21279 21278 21280 21282 1 180.0000771 15.1670000 2
21276 21280 21278 21279 4 180.0000771 4.6024000 2
21278 21280 21282 21283 1 180.0000771 15.1670000 2
21278 21280 21282 21284 1 180.0000771 15.1670000 2
21281 21280 21282 21283 1 180.0000771 15.1670000 2
21281 21280 21282 21284 1 180.0000771 15.1670000 2
21278 21282 21280 21281 4 180.0000771 4.6024000 2
21275 21282 21284 21285 4 180.0000771 4.6024000 2
21280 21282 21284 21285 1 180.0000771 15.1670000 2
21283 21282 21284 21285 1 180.0000771 15.1670000 2
21275 21284 21282 21280 1 180.0000771 15.1670000 2
21275 21284 21282 21283 1 180.0000771 15.1670000 2
21280 21284 21282 21283 4 180.0000771 4.6024000 2
21286 21287 21288 21289 1 180.0000771 15.1670000 2
21286 21287 21288 21290 1 180.0000771 15.1670000 2
21289 21287 21288 21290 4 180.0000771 4.6024000 2
21286 21287 21296 21288 4 180.0000771 4.6024000 2
21286 21287 21296 21294 1 180.0000771 15.1670000 2
21286 21287 21296 21297 1 180.0000771 15.1670000 2
21288 21287 21296 21294 1 180.0000771 15.1670000 2
21288 21287 21296 21297 1 180.0000771 15.1670000 2
21289 21288 21287 21296 1 180.0000771 15.1670000 2
21290 21288 21287 21296 1 180.0000771 15.1670000 2
21287 21288 21290 21291 1 180.0000771 15.1670000 2
21287 21288 21290 21292 1 180.0000771 15.1670000 2
21289 21288 21290 21291 1 180.0000771 15.1670000 2
21289 21288 21290 21292 1 180.0000771 15.1670000 2
21288 21290 21292 21293 1 180.0000771 15.1670000 2
21288 21290 21292 21294 1 180.0000771 15.1670000 2
21291 21290 21292 21293 1 180.0000771 15.1670000 2
21291 21290 21292 21294 1 180.0000771 15.1670000 2
21288 21292 21290 21291 4 180.0000771 4.6024000 2
21290 21292 21294 21295 1 180.0000771 15.1670000 2
21290 21292 21294 21296 1 180.0000771 15.1670000 2
21293 21292 21294 21295 1 180.0000771 15.1670000 2
21293 21292 21294 21296 1 180.0000771 15.1670000 2
21290 21294 21292 21293 4 180.0000771 4.6024000 2
21287 21294 21296 21297 4 180.0000771 4.6024000 2
21292 21294 21296 21297 1 180.0000771 15.1670000 2
21295 21294 21296 21297 1 180.0000771 15.1670000 2
21287 21296 21294 21292 1 180.0000771 15.1670000 2
21287 21296 21294 21295 1 180.0000771 15.1670000 2
21292 21296 21294 21295 4 180.0000771 4.6024000 2
21298 21299 21300 21301 1 180.0000771 15.1670000 2
21298 21299 21300 21302 1 180.0000771 15.1670000 2
21301 21299 21300 21302 4 180.0000771 4.6024000 2
21298 21299 21308 21300 4 180.0000771 4.6024000 2
21298 21299 21308 21306 1 180.0000771 15.1670000 2
21298 21299 21308 21309 1 180.0000771 15.1670000 2
21300 21299 21308 21306 1 180.0000771 15.1670000 2
21300 21299 21308 21309 1 180.0000771 15.1670000 2
21301 21300 21299 21308 1 180.0000771 15.1670000 2
21302 21300 21299 21308 1 180.0000771 15.1670000 2
21299 21300 21302 21303 1 180.0000771 15.1670000 2
21299 21300 21302 21304 1 180.0000771 15.1670000 2
21301 21300 21302 21303 1 180.0000771 15.1670000 2
21301 21300 21302 21304 1 180.0000771 15.1670000 2
21300 21302 21304 21305 1 180.0000771 15.1670000 2
21300 21302 21304 21306 1 180.0000771 15.1670000 2
21303 21302 21304 21305 1 180.0000771 15.1670000 2
21303 21302 21304 21306 1 180.0000771 15.1670000 2
21300 21304 21302 21303 4 180.0000771 4.6024000 2
21302 21304 21306 21307 1 180.0000771 15.1670000 2
21302 21304 21306 21308 1 180.0000771 15.1670000 2
21305 21304 21306 21307 1 180.0000771 15.1670000 2
21305 21304 21306 21308 1 180.0000771 15.1670000 2
21302 21306 21304 21305 4 180.0000771 4.6024000 2
21299 21306 21308 21309 4 180.0000771 4.6024000 2
21304 21306 21308 21309 1 180.0000771 15.1670000 2
21307 21306 21308 21309 1 180.0000771 15.1670000 2
21299 21308 21306 21304 1 180.0000771 15.1670000 2
21299 21308 21306 21307 1 180.0000771 15.1670000 2
21304 21308 21306 21307 4 180.0000771 4.6024000 2
21310 21311 21312 21313 1 180.0000771 15.1670000 2
21310 21311 21312 21314 1 180.0000771 15.1670000 2
21313 21311 21312 21314 4 180.0000771 4.6024000 2
21310 21311 21320 21312 4 180.0000771 4.6024000 2
21310 21311 21320 21318 1 180.0000771 15.1670000 2
21310 21311 21320 21321 1 180.0000771 15.1670000 2
21312 21311 21320 21318 1 180.0000771 15.1670000 2
21312 21311 21320 21321 1 180.0000771 15.1670000 2
21313 21312 21311 21320 1 180.0000771 15.1670000 2
21314 21312 21311 21320 1 180.0000771 15.1670000 2
21311 21312 21314 21315 1 180.0000771 15.1670000 2
21311 21312 21314 21316 1 180.0000771 15.1670000 2
21313 21312 21314 21315 1 180.0000771 15.1670000 2
21313 21312 21314 21316 1 180.0000771 15.1670000 2
21312 21314 21316 21317 1 180.0000771 15.1670000 2
21312 21314 21316 21318 1 180.0000771 15.1670000 2
21315 21314 21316 21317 1 180.0000771 15.1670000 2
21315 21314 21316 21318 1 180.0000771 15.1670000 2
21312 21316 21314 21315 4 180.0000771 4.6024000 2
21314 21316 21318 21319 1 180.0000771 15.1670000 2
21314 21316 21318 21320 1 180.0000771 15.1670000 2
21317 21316 21318 21319 1 180.0000771 15.1670000 2
21317 21316 21318 21320 1 180.0000771 15.1670000 2
21314 21318 21316 21317 4 180.0000771 4.6024000 2
21311 21318 21320 21321 4 180.0000771 4.6024000 2
21316 21318 21320 21321 1 180.0000771 15.1670000 2
21319 21318 21320 21321 1 180.0000771 15.1670000 2
21311 21320 21318 21316 1 180.0000771 15.1670000 2
21311 21320 21318 21319 1 180.0000771 15.1670000 2
21316 21320 21318 21319 4 180.0000771 4.6024000 2
21322 21323 21324 21325 1 180.0000771 15.1670000 2
21322 21323 21324 21326 1 180.0000771 15.1670000 2
21325 21323 21324 21326 4 180.0000771 4.6024000 2
21322 21323 21332 21324 4 180.0000771 4.6024000 2
21322 21323 21332 21330 1 180.0000771 15.1670000 2
21322 21323 21332 21333 1 180.0000771 15.1670000 2
21324 21323 21332 21330 1 180.0000771 15.1670000 2
21324 21323 21332 21333 1 180.0000771 15.1670000 2
21325 21324 21323 21332 1 180.0000771 15.1670000 2
21326 21324 21323 21332 1 180.0000771 15.1670000 2
21323 21324 21326 21327 1 180.0000771 15.1670000 2
21323 21324 21326 21328 1 180.0000771 15.1670000 2
21325 21324 21326 21327 1 180.0000771 15.1670000 2
21325 21324 21326 21328 1 180.0000771 15.1670000 2
21324 21326 21328 21329 1 180.0000771 15.1670000 2
21324 21326 21328 21330 1 180.0000771 15.1670000 2
21327 21326 21328 21329 1 180.0000771 15.1670000 2
21327 21326 21328 21330 1 180.0000771 15.1670000 2
21324 21328 21326 21327 4 180.0000771 4.6024000 2
21326 21328 21330 21331 1 180.0000771 15.1670000 2
21326 21328 21330 21332 1 180.0000771 15.1670000 2
21329 21328 21330 21331 1 180.0000771 15.1670000 2
21329 21328 21330 21332 1 180.0000771 15.1670000 2
21326 21330 21328 21329 4 180.0000771 4.6024000 2
21323 21330 21332 21333 4 180.0000771 4.6024000 2
21328 21330 21332 21333 1 180.0000771 15.1670000 2
21331 21330 21332 21333 1 180.0000771 15.1670000 2
21323 21332 21330 21328 1 180.0000771 15.1670000 2
21323 21332 21330 21331 1 180.0000771 15.1670000 2
21328 21332 21330 21331 4 180.0000771 4.6024000 2
21334 21335 21336 21337 1 180.0000771 15.1670000 2
21334 21335 21336 21338 1 180.0000771 15.1670000 2
21337 21335 21336 21338 4 180.0000771 4.6024000 2
21334 21335 21344 21336 4 180.0000771 4.6024000 2
21334 21335 21344 21342 1 180.0000771 15.1670000 2
21334 21335 21344 21345 1 180.0000771 15.1670000 2
21336 21335 21344 21342 1 180.0000771 15.1670000 2
21336 21335 21344 21345 1 180.0000771 15.1670000 2
21337 21336 21335 21344 1 180.0000771 15.1670000 2
21338 21336 21335 21344 1 180.0000771 15.1670000 2
21335 21336 21338 21339 1 180.0000771 15.1670000 2
21335 21336 21338 21340 1 180.0000771 15.1670000 2
21337 21336 21338 21339 1 180.0000771 15.1670000 2
21337 21336 21338 21340 1 180.0000771 15.1670000 2
21336 21338 21340 21341 1 180.0000771 15.1670000 2
21336 21338 21340 21342 1 180.0000771 15.1670000 2
21339 21338 21340 21341 1 180.0000771 15.1670000 2
21339 21338 21340 21342 1 180.0000771 15.1670000 2
21336 21340 21338 21339 4 180.0000771 4.6024000 2
21338 21340 21342 21343 1 180.0000771 15.1670000 2
21338 21340 21342 21344 1 180.0000771 15.1670000 2
21341 21340 21342 21343 1 180.0000771 15.1670000 2
21341 21340 21342 21344 1 180.0000771 15.1670000 2
21338 21342 21340 21341 4 180.0000771 4.6024000 2
21335 21342 21344 21345 4 180.0000771 4.6024000 2
21340 21342 21344 21345 1 180.0000771 15.1670000 2
21343 21342 21344 21345 1 180.0000771 15.1670000 2
21335 21344 21342 21340 1 180.0000771 15.1670000 2
21335 21344 21342 21343 1 180.0000771 15.1670000 2
21340 21344 21342 21343 4 180.0000771 4.6024000 2
21346 21347 21348 21349 1 180.0000771 15.1670000 2
21346 21347 21348 21350 1 180.0000771 15.1670000 2
21349 21347 21348 21350 4 180.0000771 4.6024000 2
21346 21347 21356 21348 4 180.0000771 4.6024000 2
21346 21347 21356 21354 1 180.0000771 15.1670000 2
21346 21347 21356 21357 1 180.0000771 15.1670000 2
21348 21347 21356 21354 1 180.0000771 15.1670000 2
21348 21347 21356 21357 1 180.0000771 15.1670000 2
21349 21348 21347 21356 1 180.0000771 15.1670000 2
21350 21348 21347 21356 1 180.0000771 15.1670000 2
21347 21348 21350 21351 1 180.0000771 15.1670000 2
21347 21348 21350 21352 1 180.0000771 15.1670000 2
21349 21348 21350 21351 1 180.0000771 15.1670000 2
21349 21348 21350 21352 1 180.0000771 15.1670000 2
21348 21350 21352 21353 1 180.0000771 15.1670000 2
21348 21350 21352 21354 1 180.0000771 15.1670000 2
21351 21350 21352 21353 1 180.0000771 15.1670000 2
21351 21350 21352 21354 1 180.0000771 15.1670000 2
21348 21352 21350 21351 4 180.0000771 4.6024000 2
21350 21352 21354 21355 1 180.0000771 15.1670000 2
21350 21352 21354 21356 1 180.0000771 15.1670000 2
21353 21352 21354 21355 1 180.0000771 15.1670000 2
21353 21352 21354 21356 1 180.0000771 15.1670000 2
21350 21354 21352 21353 4 180.0000771 4.6024000 2
21347 21354 21356 21357 4 180.0000771 4.6024000 2
21352 21354 21356 21357 1 180.0000771 15.1670000 2
21355 21354 21356 21357 1 180.0000771 15.1670000 2
21347 21356 21354 21352 1 180.0000771 15.1670000 2
21347 21356 21354 21355 1 180.0000771 15.1670000 2
21352 21356 21354 21355 4 180.0000771 4.6024000 2
21358 21359 21360 21361 1 180.0000771 15.1670000 2
21358 21359 21360 21362 1 180.0000771 15.1670000 2
21361 21359 21360 21362 4 180.0000771 4.6024000 2
21358 21359 21368 21360 4 180.0000771 4.6024000 2
21358 21359 21368 21366 1 180.0000771 15.1670000 2
21358 21359 21368 21369 1 180.0000771 15.1670000 2
21360 21359 21368 21366 1 180.0000771 15.1670000 2
21360 21359 21368 21369 1 180.0000771 15.1670000 2
21361 21360 21359 21368 1 180.0000771 15.1670000 2
21362 21360 21359 21368 1 180.0000771 15.1670000 2
21359 21360 21362 21363 1 180.0000771 15.1670000 2
21359 21360 21362 21364 1 180.0000771 15.1670000 2
21361 21360 21362 21363 1 180.0000771 15.1670000 2
21361 21360 21362 21364 1 180.0000771 15.1670000 2
21360 21362 21364 21365 1 180.0000771 15.1670000 2
21360 21362 21364 21366 1 180.0000771 15.1670000 2
21363 21362 21364 21365 1 180.0000771 15.1670000 2
21363 21362 21364 21366 1 180.0000771 15.1670000 2
21360 21364 21362 21363 4 180.0000771 4.6024000 2
21362 21364 21366 21367 1 180.0000771 15.1670000 2
21362 21364 21366 21368 1 180.0000771 15.1670000 2
21365 21364 21366 21367 1 180.0000771 15.1670000 2
21365 21364 21366 21368 1 180.0000771 15.1670000 2
21362 21366 21364 21365 4 180.0000771 4.6024000 2
21359 21366 21368 21369 4 180.0000771 4.6024000 2
21364 21366 21368 21369 1 180.0000771 15.1670000 2
21367 21366 21368 21369 1 180.0000771 15.1670000 2
21359 21368 21366 21364 1 180.0000771 15.1670000 2
21359 21368 21366 21367 1 180.0000771 15.1670000 2
21364 21368 21366 21367 4 180.0000771 4.6024000 2
21370 21371 21372 21373 1 180.0000771 15.1670000 2
21370 21371 21372 21374 1 180.0000771 15.1670000 2
21373 21371 21372 21374 4 180.0000771 4.6024000 2
21370 21371 21380 21372 4 180.0000771 4.6024000 2
21370 21371 21380 21378 1 180.0000771 15.1670000 2
21370 21371 21380 21381 1 180.0000771 15.1670000 2
21372 21371 21380 21378 1 180.0000771 15.1670000 2
21372 21371 21380 21381 1 180.0000771 15.1670000 2
21373 21372 21371 21380 1 180.0000771 15.1670000 2
21374 21372 21371 21380 1 180.0000771 15.1670000 2
21371 21372 21374 21375 1 180.0000771 15.1670000 2
21371 21372 21374 21376 1 180.0000771 15.1670000 2
21373 21372 21374 21375 1 180.0000771 15.1670000 2
21373 21372 21374 21376 1 180.0000771 15.1670000 2
21372 21374 21376 21377 1 180.0000771 15.1670000 2
21372 21374 21376 21378 1 180.0000771 15.1670000 2
21375 21374 21376 21377 1 180.0000771 15.1670000 2
21375 21374 21376 21378 1 180.0000771 15.1670000 2
21372 21376 21374 21375 4 180.0000771 4.6024000 2
21374 21376 21378 21379 1 180.0000771 15.1670000 2
21374 21376 21378 21380 1 180.0000771 15.1670000 2
21377 21376 21378 21379 1 180.0000771 15.1670000 2
21377 21376 21378 21380 1 180.0000771 15.1670000 2
21374 21378 21376 21377 4 180.0000771 4.6024000 2
21371 21378 21380 21381 4 180.0000771 4.6024000 2
21376 21378 21380 21381 1 180.0000771 15.1670000 2
21379 21378 21380 21381 1 180.0000771 15.1670000 2
21371 21380 21378 21376 1 180.0000771 15.1670000 2
21371 21380 21378 21379 1 180.0000771 15.1670000 2
21376 21380 21378 21379 4 180.0000771 4.6024000 2
21382 21383 21384 21385 1 180.0000771 15.1670000 2
21382 21383 21384 21386 1 180.0000771 15.1670000 2
21385 21383 21384 21386 4 180.0000771 4.6024000 2
21382 21383 21392 21384 4 180.0000771 4.6024000 2
21382 21383 21392 21390 1 180.0000771 15.1670000 2
21382 21383 21392 21393 1 180.0000771 15.1670000 2
21384 21383 21392 21390 1 180.0000771 15.1670000 2
21384 21383 21392 21393 1 180.0000771 15.1670000 2
21385 21384 21383 21392 1 180.0000771 15.1670000 2
21386 21384 21383 21392 1 180.0000771 15.1670000 2
21383 21384 21386 21387 1 180.0000771 15.1670000 2
21383 21384 21386 21388 1 180.0000771 15.1670000 2
21385 21384 21386 21387 1 180.0000771 15.1670000 2
21385 21384 21386 21388 1 180.0000771 15.1670000 2
21384 21386 21388 21389 1 180.0000771 15.1670000 2
21384 21386 21388 21390 1 180.0000771 15.1670000 2
21387 21386 21388 21389 1 180.0000771 15.1670000 2
21387 21386 21388 21390 1 180.0000771 15.1670000 2
21384 21388 21386 21387 4 180.0000771 4.6024000 2
21386 21388 21390 21391 1 180.0000771 15.1670000 2
21386 21388 21390 21392 1 180.0000771 15.1670000 2
21389 21388 21390 21391 1 180.0000771 15.1670000 2
21389 21388 21390 21392 1 180.0000771 15.1670000 2
21386 21390 21388 21389 4 180.0000771 4.6024000 2
21383 21390 21392 21393 4 180.0000771 4.6024000 2
21388 21390 21392 21393 1 180.0000771 15.1670000 2
21391 21390 21392 21393 1 180.0000771 15.1670000 2
21383 21392 21390 21388 1 180.0000771 15.1670000 2
21383 21392 21390 21391 1 180.0000771 15.1670000 2
21388 21392 21390 21391 4 180.0000771 4.6024000 2
21394 21395 21396 21397 1 180.0000771 15.1670000 2
21394 21395 21396 21398 1 180.0000771 15.1670000 2
21397 21395 21396 21398 4 180.0000771 4.6024000 2
21394 21395 21404 21396 4 180.0000771 4.6024000 2
21394 21395 21404 21402 1 180.0000771 15.1670000 2
21394 21395 21404 21405 1 180.0000771 15.1670000 2
21396 21395 21404 21402 1 180.0000771 15.1670000 2
21396 21395 21404 21405 1 180.0000771 15.1670000 2
21397 21396 21395 21404 1 180.0000771 15.1670000 2
21398 21396 21395 21404 1 180.0000771 15.1670000 2
21395 21396 21398 21399 1 180.0000771 15.1670000 2
21395 21396 21398 21400 1 180.0000771 15.1670000 2
21397 21396 21398 21399 1 180.0000771 15.1670000 2
21397 21396 21398 21400 1 180.0000771 15.1670000 2
21396 21398 21400 21401 1 180.0000771 15.1670000 2
21396 21398 21400 21402 1 180.0000771 15.1670000 2
21399 21398 21400 21401 1 180.0000771 15.1670000 2
21399 21398 21400 21402 1 180.0000771 15.1670000 2
21396 21400 21398 21399 4 180.0000771 4.6024000 2
21398 21400 21402 21403 1 180.0000771 15.1670000 2
21398 21400 21402 21404 1 180.0000771 15.1670000 2
21401 21400 21402 21403 1 180.0000771 15.1670000 2
21401 21400 21402 21404 1 180.0000771 15.1670000 2
21398 21402 21400 21401 4 180.0000771 4.6024000 2
21395 21402 21404 21405 4 180.0000771 4.6024000 2
21400 21402 21404 21405 1 180.0000771 15.1670000 2
21403 21402 21404 21405 1 180.0000771 15.1670000 2
21395 21404 21402 21400 1 180.0000771 15.1670000 2
21395 21404 21402 21403 1 180.0000771 15.1670000 2
21400 21404 21402 21403 4 180.0000771 4.6024000 2
21406 21407 21408 21409 1 180.0000771 15.1670000 2
21406 21407 21408 21410 1 180.0000771 15.1670000 2
21409 21407 21408 21410 4 180.0000771 4.6024000 2
21406 21407 21416 21408 4 180.0000771 4.6024000 2
21406 21407 21416 21414 1 180.0000771 15.1670000 2
21406 21407 21416 21417 1 180.0000771 15.1670000 2
21408 21407 21416 21414 1 180.0000771 15.1670000 2
21408 21407 21416 21417 1 180.0000771 15.1670000 2
21409 21408 21407 21416 1 180.0000771 15.1670000 2
21410 21408 21407 21416 1 180.0000771 15.1670000 2
21407 21408 21410 21411 1 180.0000771 15.1670000 2
21407 21408 21410 21412 1 180.0000771 15.1670000 2
21409 21408 21410 21411 1 180.0000771 15.1670000 2
21409 21408 21410 21412 1 180.0000771 15.1670000 2
21408 21410 21412 21413 1 180.0000771 15.1670000 2
21408 21410 21412 21414 1 180.0000771 15.1670000 2
21411 21410 21412 21413 1 180.0000771 15.1670000 2
21411 21410 21412 21414 1 180.0000771 15.1670000 2
21408 21412 21410 21411 4 180.0000771 4.6024000 2
21410 21412 21414 21415 1 180.0000771 15.1670000 2
21410 21412 21414 21416 1 180.0000771 15.1670000 2
21413 21412 21414 21415 1 180.0000771 15.1670000 2
21413 21412 21414 21416 1 180.0000771 15.1670000 2
21410 21414 21412 21413 4 180.0000771 4.6024000 2
21407 21414 21416 21417 4 180.0000771 4.6024000 2
21412 21414 21416 21417 1 180.0000771 15.1670000 2
21415 21414 21416 21417 1 180.0000771 15.1670000 2
21407 21416 21414 21412 1 180.0000771 15.1670000 2
21407 21416 21414 21415 1 180.0000771 15.1670000 2
21412 21416 21414 21415 4 180.0000771 4.6024000 2
21418 21419 21420 21421 1 180.0000771 15.1670000 2
21418 21419 21420 21422 1 180.0000771 15.1670000 2
21421 21419 21420 21422 4 180.0000771 4.6024000 2
21418 21419 21428 21420 4 180.0000771 4.6024000 2
21418 21419 21428 21426 1 180.0000771 15.1670000 2
21418 21419 21428 21429 1 180.0000771 15.1670000 2
21420 21419 21428 21426 1 180.0000771 15.1670000 2
21420 21419 21428 21429 1 180.0000771 15.1670000 2
21421 21420 21419 21428 1 180.0000771 15.1670000 2
21422 21420 21419 21428 1 180.0000771 15.1670000 2
21419 21420 21422 21423 1 180.0000771 15.1670000 2
21419 21420 21422 21424 1 180.0000771 15.1670000 2
21421 21420 21422 21423 1 180.0000771 15.1670000 2
21421 21420 21422 21424 1 180.0000771 15.1670000 2
21420 21422 21424 21425 1 180.0000771 15.1670000 2
21420 21422 21424 21426 1 180.0000771 15.1670000 2
21423 21422 21424 21425 1 180.0000771 15.1670000 2
21423 21422 21424 21426 1 180.0000771 15.1670000 2
21420 21424 21422 21423 4 180.0000771 4.6024000 2
21422 21424 21426 21427 1 180.0000771 15.1670000 2
21422 21424 21426 21428 1 180.0000771 15.1670000 2
21425 21424 21426 21427 1 180.0000771 15.1670000 2
21425 21424 21426 21428 1 180.0000771 15.1670000 2
21422 21426 21424 21425 4 180.0000771 4.6024000 2
21419 21426 21428 21429 4 180.0000771 4.6024000 2
21424 21426 21428 21429 1 180.0000771 15.1670000 2
21427 21426 21428 21429 1 180.0000771 15.1670000 2
21419 21428 21426 21424 1 180.0000771 15.1670000 2
21419 21428 21426 21427 1 180.0000771 15.1670000 2
21424 21428 21426 21427 4 180.0000771 4.6024000 2
21430 21431 21432 21433 1 180.0000771 15.1670000 2
21430 21431 21432 21434 1 180.0000771 15.1670000 2
21433 21431 21432 21434 4 180.0000771 4.6024000 2
21430 21431 21440 21432 4 180.0000771 4.6024000 2
21430 21431 21440 21438 1 180.0000771 15.1670000 2
21430 21431 21440 21441 1 180.0000771 15.1670000 2
21432 21431 21440 21438 1 180.0000771 15.1670000 2
21432 21431 21440 21441 1 180.0000771 15.1670000 2
21433 21432 21431 21440 1 180.0000771 15.1670000 2
21434 21432 21431 21440 1 180.0000771 15.1670000 2
21431 21432 21434 21435 1 180.0000771 15.1670000 2
21431 21432 21434 21436 1 180.0000771 15.1670000 2
21433 21432 21434 21435 1 180.0000771 15.1670000 2
21433 21432 21434 21436 1 180.0000771 15.1670000 2
21432 21434 21436 21437 1 180.0000771 15.1670000 2
21432 21434 21436 21438 1 180.0000771 15.1670000 2
21435 21434 21436 21437 1 180.0000771 15.1670000 2
21435 21434 21436 21438 1 180.0000771 15.1670000 2
21432 21436 21434 21435 4 180.0000771 4.6024000 2
21434 21436 21438 21439 1 180.0000771 15.1670000 2
21434 21436 21438 21440 1 180.0000771 15.1670000 2
21437 21436 21438 21439 1 180.0000771 15.1670000 2
21437 21436 21438 21440 1 180.0000771 15.1670000 2
21434 21438 21436 21437 4 180.0000771 4.6024000 2
21431 21438 21440 21441 4 180.0000771 4.6024000 2
21436 21438 21440 21441 1 180.0000771 15.1670000 2
21439 21438 21440 21441 1 180.0000771 15.1670000 2
21431 21440 21438 21436 1 180.0000771 15.1670000 2
21431 21440 21438 21439 1 180.0000771 15.1670000 2
21436 21440 21438 21439 4 180.0000771 4.6024000 2
21442 21443 21444 21445 1 180.0000771 15.1670000 2
21442 21443 21444 21446 1 180.0000771 15.1670000 2
21445 21443 21444 21446 4 180.0000771 4.6024000 2
21442 21443 21452 21444 4 180.0000771 4.6024000 2
21442 21443 21452 21450 1 180.0000771 15.1670000 2
21442 21443 21452 21453 1 180.0000771 15.1670000 2
21444 21443 21452 21450 1 180.0000771 15.1670000 2
21444 21443 21452 21453 1 180.0000771 15.1670000 2
21445 21444 21443 21452 1 180.0000771 15.1670000 2
21446 21444 21443 21452 1 180.0000771 15.1670000 2
21443 21444 21446 21447 1 180.0000771 15.1670000 2
21443 21444 21446 21448 1 180.0000771 15.1670000 2
21445 21444 21446 21447 1 180.0000771 15.1670000 2
21445 21444 21446 21448 1 180.0000771 15.1670000 2
21444 21446 21448 21449 1 180.0000771 15.1670000 2
21444 21446 21448 21450 1 180.0000771 15.1670000 2
21447 21446 21448 21449 1 180.0000771 15.1670000 2
21447 21446 21448 21450 1 180.0000771 15.1670000 2
21444 21448 21446 21447 4 180.0000771 4.6024000 2
21446 21448 21450 21451 1 180.0000771 15.1670000 2
21446 21448 21450 21452 1 180.0000771 15.1670000 2
21449 21448 21450 21451 1 180.0000771 15.1670000 2
21449 21448 21450 21452 1 180.0000771 15.1670000 2
21446 21450 21448 21449 4 180.0000771 4.6024000 2
21443 21450 21452 21453 4 180.0000771 4.6024000 2
21448 21450 21452 21453 1 180.0000771 15.1670000 2
21451 21450 21452 21453 1 180.0000771 15.1670000 2
21443 21452 21450 21448 1 180.0000771 15.1670000 2
21443 21452 21450 21451 1 180.0000771 15.1670000 2
21448 21452 21450 21451 4 180.0000771 4.6024000 2
21454 21455 21456 21457 1 180.0000771 15.1670000 2
21454 21455 21456 21458 1 180.0000771 15.1670000 2
21457 21455 21456 21458 4 180.0000771 4.6024000 2
21454 21455 21464 21456 4 180.0000771 4.6024000 2
21454 21455 21464 21462 1 180.0000771 15.1670000 2
21454 21455 21464 21465 1 180.0000771 15.1670000 2
21456 21455 21464 21462 1 180.0000771 15.1670000 2
21456 21455 21464 21465 1 180.0000771 15.1670000 2
21457 21456 21455 21464 1 180.0000771 15.1670000 2
21458 21456 21455 21464 1 180.0000771 15.1670000 2
21455 21456 21458 21459 1 180.0000771 15.1670000 2
21455 21456 21458 21460 1 180.0000771 15.1670000 2
21457 21456 21458 21459 1 180.0000771 15.1670000 2
21457 21456 21458 21460 1 180.0000771 15.1670000 2
21456 21458 21460 21461 1 180.0000771 15.1670000 2
21456 21458 21460 21462 1 180.0000771 15.1670000 2
21459 21458 21460 21461 1 180.0000771 15.1670000 2
21459 21458 21460 21462 1 180.0000771 15.1670000 2
21456 21460 21458 21459 4 180.0000771 4.6024000 2
21458 21460 21462 21463 1 180.0000771 15.1670000 2
21458 21460 21462 21464 1 180.0000771 15.1670000 2
21461 21460 21462 21463 1 180.0000771 15.1670000 2
21461 21460 21462 21464 1 180.0000771 15.1670000 2
21458 21462 21460 21461 4 180.0000771 4.6024000 2
21455 21462 21464 21465 4 180.0000771 4.6024000 2
21460 21462 21464 21465 1 180.0000771 15.1670000 2
21463 21462 21464 21465 1 180.0000771 15.1670000 2
21455 21464 21462 21460 1 180.0000771 15.1670000 2
21455 21464 21462 21463 1 180.0000771 15.1670000 2
21460 21464 21462 21463 4 180.0000771 4.6024000 2
21466 21467 21468 21469 1 180.0000771 15.1670000 2
21466 21467 21468 21470 1 180.0000771 15.1670000 2
21469 21467 21468 21470 4 180.0000771 4.6024000 2
21466 21467 21476 21468 4 180.0000771 4.6024000 2
21466 21467 21476 21474 1 180.0000771 15.1670000 2
21466 21467 21476 21477 1 180.0000771 15.1670000 2
21468 21467 21476 21474 1 180.0000771 15.1670000 2
21468 21467 21476 21477 1 180.0000771 15.1670000 2
21469 21468 21467 21476 1 180.0000771 15.1670000 2
21470 21468 21467 21476 1 180.0000771 15.1670000 2
21467 21468 21470 21471 1 180.0000771 15.1670000 2
21467 21468 21470 21472 1 180.0000771 15.1670000 2
21469 21468 21470 21471 1 180.0000771 15.1670000 2
21469 21468 21470 21472 1 180.0000771 15.1670000 2
21468 21470 21472 21473 1 180.0000771 15.1670000 2
21468 21470 21472 21474 1 180.0000771 15.1670000 2
21471 21470 21472 21473 1 180.0000771 15.1670000 2
21471 21470 21472 21474 1 180.0000771 15.1670000 2
21468 21472 21470 21471 4 180.0000771 4.6024000 2
21470 21472 21474 21475 1 180.0000771 15.1670000 2
21470 21472 21474 21476 1 180.0000771 15.1670000 2
21473 21472 21474 21475 1 180.0000771 15.1670000 2
21473 21472 21474 21476 1 180.0000771 15.1670000 2
21470 21474 21472 21473 4 180.0000771 4.6024000 2
21467 21474 21476 21477 4 180.0000771 4.6024000 2
21472 21474 21476 21477 1 180.0000771 15.1670000 2
21475 21474 21476 21477 1 180.0000771 15.1670000 2
21467 21476 21474 21472 1 180.0000771 15.1670000 2
21467 21476 21474 21475 1 180.0000771 15.1670000 2
21472 21476 21474 21475 4 180.0000771 4.6024000 2
21478 21479 21480 21481 1 180.0000771 15.1670000 2
21478 21479 21480 21482 1 180.0000771 15.1670000 2
21481 21479 21480 21482 4 180.0000771 4.6024000 2
21478 21479 21488 21480 4 180.0000771 4.6024000 2
21478 21479 21488 21486 1 180.0000771 15.1670000 2
21478 21479 21488 21489 1 180.0000771 15.1670000 2
21480 21479 21488 21486 1 180.0000771 15.1670000 2
21480 21479 21488 21489 1 180.0000771 15.1670000 2
21481 21480 21479 21488 1 180.0000771 15.1670000 2
21482 21480 21479 21488 1 180.0000771 15.1670000 2
21479 21480 21482 21483 1 180.0000771 15.1670000 2
21479 21480 21482 21484 1 180.0000771 15.1670000 2
21481 21480 21482 21483 1 180.0000771 15.1670000 2
21481 21480 21482 21484 1 180.0000771 15.1670000 2
21480 21482 21484 21485 1 180.0000771 15.1670000 2
21480 21482 21484 21486 1 180.0000771 15.1670000 2
21483 21482 21484 21485 1 180.0000771 15.1670000 2
21483 21482 21484 21486 1 180.0000771 15.1670000 2
21480 21484 21482 21483 4 180.0000771 4.6024000 2
21482 21484 21486 21487 1 180.0000771 15.1670000 2
21482 21484 21486 21488 1 180.0000771 15.1670000 2
21485 21484 21486 21487 1 180.0000771 15.1670000 2
21485 21484 21486 21488 1 180.0000771 15.1670000 2
21482 21486 21484 21485 4 180.0000771 4.6024000 2
21479 21486 21488 21489 4 180.0000771 4.6024000 2
21484 21486 21488 21489 1 180.0000771 15.1670000 2
21487 21486 21488 21489 1 180.0000771 15.1670000 2
21479 21488 21486 21484 1 180.0000771 15.1670000 2
21479 21488 21486 21487 1 180.0000771 15.1670000 2
21484 21488 21486 21487 4 180.0000771 4.6024000 2
21490 21491 21492 21493 1 180.0000771 15.1670000 2
21490 21491 21492 21494 1 180.0000771 15.1670000 2
21493 21491 21492 21494 4 180.0000771 4.6024000 2
21490 21491 21500 21492 4 180.0000771 4.6024000 2
21490 21491 21500 21498 1 180.0000771 15.1670000 2
21490 21491 21500 21501 1 180.0000771 15.1670000 2
21492 21491 21500 21498 1 180.0000771 15.1670000 2
21492 21491 21500 21501 1 180.0000771 15.1670000 2
21493 21492 21491 21500 1 180.0000771 15.1670000 2
21494 21492 21491 21500 1 180.0000771 15.1670000 2
21491 21492 21494 21495 1 180.0000771 15.1670000 2
21491 21492 21494 21496 1 180.0000771 15.1670000 2
21493 21492 21494 21495 1 180.0000771 15.1670000 2
21493 21492 21494 21496 1 180.0000771 15.1670000 2
21492 21494 21496 21497 1 180.0000771 15.1670000 2
21492 21494 21496 21498 1 180.0000771 15.1670000 2
21495 21494 21496 21497 1 180.0000771 15.1670000 2
21495 21494 21496 21498 1 180.0000771 15.1670000 2
21492 21496 21494 21495 4 180.0000771 4.6024000 2
21494 21496 21498 21499 1 180.0000771 15.1670000 2
21494 21496 21498 21500 1 180.0000771 15.1670000 2
21497 21496 21498 21499 1 180.0000771 15.1670000 2
21497 21496 21498 21500 1 180.0000771 15.1670000 2
21494 21498 21496 21497 4 180.0000771 4.6024000 2
21491 21498 21500 21501 4 180.0000771 4.6024000 2
21496 21498 21500 21501 1 180.0000771 15.1670000 2
21499 21498 21500 21501 1 180.0000771 15.1670000 2
21491 21500 21498 21496 1 180.0000771 15.1670000 2
21491 21500 21498 21499 1 180.0000771 15.1670000 2
21496 21500 21498 21499 4 180.0000771 4.6024000 2
21502 21503 21504 21505 1 180.0000771 15.1670000 2
21502 21503 21504 21506 1 180.0000771 15.1670000 2
21505 21503 21504 21506 4 180.0000771 4.6024000 2
21502 21503 21512 21504 4 180.0000771 4.6024000 2
21502 21503 21512 21510 1 180.0000771 15.1670000 2
21502 21503 21512 21513 1 180.0000771 15.1670000 2
21504 21503 21512 21510 1 180.0000771 15.1670000 2
21504 21503 21512 21513 1 180.0000771 15.1670000 2
21505 21504 21503 21512 1 180.0000771 15.1670000 2
21506 21504 21503 21512 1 180.0000771 15.1670000 2
21503 21504 21506 21507 1 180.0000771 15.1670000 2
21503 21504 21506 21508 1 180.0000771 15.1670000 2
21505 21504 21506 21507 1 180.0000771 15.1670000 2
21505 21504 21506 21508 1 180.0000771 15.1670000 2
21504 21506 21508 21509 1 180.0000771 15.1670000 2
21504 21506 21508 21510 1 180.0000771 15.1670000 2
21507 21506 21508 21509 1 180.0000771 15.1670000 2
21507 21506 21508 21510 1 180.0000771 15.1670000 2
21504 21508 21506 21507 4 180.0000771 4.6024000 2
21506 21508 21510 21511 1 180.0000771 15.1670000 2
21506 21508 21510 21512 1 180.0000771 15.1670000 2
21509 21508 21510 21511 1 180.0000771 15.1670000 2
21509 21508 21510 21512 1 180.0000771 15.1670000 2
21506 21510 21508 21509 4 180.0000771 4.6024000 2
21503 21510 21512 21513 4 180.0000771 4.6024000 2
21508 21510 21512 21513 1 180.0000771 15.1670000 2
21511 21510 21512 21513 1 180.0000771 15.1670000 2
21503 21512 21510 21508 1 180.0000771 15.1670000 2
21503 21512 21510 21511 1 180.0000771 15.1670000 2
21508 21512 21510 21511 4 180.0000771 4.6024000 2
21514 21515 21516 21517 1 180.0000771 15.1670000 2
21514 21515 21516 21518 1 180.0000771 15.1670000 2
21517 21515 21516 21518 4 180.0000771 4.6024000 2
21514 21515 21524 21516 4 180.0000771 4.6024000 2
21514 21515 21524 21522 1 180.0000771 15.1670000 2
21514 21515 21524 21525 1 180.0000771 15.1670000 2
21516 21515 21524 21522 1 180.0000771 15.1670000 2
21516 21515 21524 21525 1 180.0000771 15.1670000 2
21517 21516 21515 21524 1 180.0000771 15.1670000 2
21518 21516 21515 21524 1 180.0000771 15.1670000 2
21515 21516 21518 21519 1 180.0000771 15.1670000 2
21515 21516 21518 21520 1 180.0000771 15.1670000 2
21517 21516 21518 21519 1 180.0000771 15.1670000 2
21517 21516 21518 21520 1 180.0000771 15.1670000 2
21516 21518 21520 21521 1 180.0000771 15.1670000 2
21516 21518 21520 21522 1 180.0000771 15.1670000 2
21519 21518 21520 21521 1 180.0000771 15.1670000 2
21519 21518 21520 21522 1 180.0000771 15.1670000 2
21516 21520 21518 21519 4 180.0000771 4.6024000 2
21518 21520 21522 21523 1 180.0000771 15.1670000 2
21518 21520 21522 21524 1 180.0000771 15.1670000 2
21521 21520 21522 21523 1 180.0000771 15.1670000 2
21521 21520 21522 21524 1 180.0000771 15.1670000 2
21518 21522 21520 21521 4 180.0000771 4.6024000 2
21515 21522 21524 21525 4 180.0000771 4.6024000 2
21520 21522 21524 21525 1 180.0000771 15.1670000 2
21523 21522 21524 21525 1 180.0000771 15.1670000 2
21515 21524 21522 21520 1 180.0000771 15.1670000 2
21515 21524 21522 21523 1 180.0000771 15.1670000 2
21520 21524 21522 21523 4 180.0000771 4.6024000 2
21526 21527 21528 21529 1 180.0000771 15.1670000 2
21526 21527 21528 21530 1 180.0000771 15.1670000 2
21529 21527 21528 21530 4 180.0000771 4.6024000 2
21526 21527 21536 21528 4 180.0000771 4.6024000 2
21526 21527 21536 21534 1 180.0000771 15.1670000 2
21526 21527 21536 21537 1 180.0000771 15.1670000 2
21528 21527 21536 21534 1 180.0000771 15.1670000 2
21528 21527 21536 21537 1 180.0000771 15.1670000 2
21529 21528 21527 21536 1 180.0000771 15.1670000 2
21530 21528 21527 21536 1 180.0000771 15.1670000 2
21527 21528 21530 21531 1 180.0000771 15.1670000 2
21527 21528 21530 21532 1 180.0000771 15.1670000 2
21529 21528 21530 21531 1 180.0000771 15.1670000 2
21529 21528 21530 21532 1 180.0000771 15.1670000 2
21528 21530 21532 21533 1 180.0000771 15.1670000 2
21528 21530 21532 21534 1 180.0000771 15.1670000 2
21531 21530 21532 21533 1 180.0000771 15.1670000 2
21531 21530 21532 21534 1 180.0000771 15.1670000 2
21528 21532 21530 21531 4 180.0000771 4.6024000 2
21530 21532 21534 21535 1 180.0000771 15.1670000 2
21530 21532 21534 21536 1 180.0000771 15.1670000 2
21533 21532 21534 21535 1 180.0000771 15.1670000 2
21533 21532 21534 21536 1 180.0000771 15.1670000 2
21530 21534 21532 21533 4 180.0000771 4.6024000 2
21527 21534 21536 21537 4 180.0000771 4.6024000 2
21532 21534 21536 21537 1 180.0000771 15.1670000 2
21535 21534 21536 21537 1 180.0000771 15.1670000 2
21527 21536 21534 21532 1 180.0000771 15.1670000 2
21527 21536 21534 21535 1 180.0000771 15.1670000 2
21532 21536 21534 21535 4 180.0000771 4.6024000 2
21538 21539 21540 21541 1 180.0000771 15.1670000 2
21538 21539 21540 21542 1 180.0000771 15.1670000 2
21541 21539 21540 21542 4 180.0000771 4.6024000 2
21538 21539 21548 21540 4 180.0000771 4.6024000 2
21538 21539 21548 21546 1 180.0000771 15.1670000 2
21538 21539 21548 21549 1 180.0000771 15.1670000 2
21540 21539 21548 21546 1 180.0000771 15.1670000 2
21540 21539 21548 21549 1 180.0000771 15.1670000 2
21541 21540 21539 21548 1 180.0000771 15.1670000 2
21542 21540 21539 21548 1 180.0000771 15.1670000 2
21539 21540 21542 21543 1 180.0000771 15.1670000 2
21539 21540 21542 21544 1 180.0000771 15.1670000 2
21541 21540 21542 21543 1 180.0000771 15.1670000 2
21541 21540 21542 21544 1 180.0000771 15.1670000 2
21540 21542 21544 21545 1 180.0000771 15.1670000 2
21540 21542 21544 21546 1 180.0000771 15.1670000 2
21543 21542 21544 21545 1 180.0000771 15.1670000 2
21543 21542 21544 21546 1 180.0000771 15.1670000 2
21540 21544 21542 21543 4 180.0000771 4.6024000 2
21542 21544 21546 21547 1 180.0000771 15.1670000 2
21542 21544 21546 21548 1 180.0000771 15.1670000 2
21545 21544 21546 21547 1 180.0000771 15.1670000 2
21545 21544 21546 21548 1 180.0000771 15.1670000 2
21542 21546 21544 21545 4 180.0000771 4.6024000 2
21539 21546 21548 21549 4 180.0000771 4.6024000 2
21544 21546 21548 21549 1 180.0000771 15.1670000 2
21547 21546 21548 21549 1 180.0000771 15.1670000 2
21539 21548 21546 21544 1 180.0000771 15.1670000 2
21539 21548 21546 21547 1 180.0000771 15.1670000 2
21544 21548 21546 21547 4 180.0000771 4.6024000 2
21550 21551 21552 21553 1 180.0000771 15.1670000 2
21550 21551 21552 21554 1 180.0000771 15.1670000 2
21553 21551 21552 21554 4 180.0000771 4.6024000 2
21550 21551 21560 21552 4 180.0000771 4.6024000 2
21550 21551 21560 21558 1 180.0000771 15.1670000 2
21550 21551 21560 21561 1 180.0000771 15.1670000 2
21552 21551 21560 21558 1 180.0000771 15.1670000 2
21552 21551 21560 21561 1 180.0000771 15.1670000 2
21553 21552 21551 21560 1 180.0000771 15.1670000 2
21554 21552 21551 21560 1 180.0000771 15.1670000 2
21551 21552 21554 21555 1 180.0000771 15.1670000 2
21551 21552 21554 21556 1 180.0000771 15.1670000 2
21553 21552 21554 21555 1 180.0000771 15.1670000 2
21553 21552 21554 21556 1 180.0000771 15.1670000 2
21552 21554 21556 21557 1 180.0000771 15.1670000 2
21552 21554 21556 21558 1 180.0000771 15.1670000 2
21555 21554 21556 21557 1 180.0000771 15.1670000 2
21555 21554 21556 21558 1 180.0000771 15.1670000 2
21552 21556 21554 21555 4 180.0000771 4.6024000 2
21554 21556 21558 21559 1 180.0000771 15.1670000 2
21554 21556 21558 21560 1 180.0000771 15.1670000 2
21557 21556 21558 21559 1 180.0000771 15.1670000 2
21557 21556 21558 21560 1 180.0000771 15.1670000 2
21554 21558 21556 21557 4 180.0000771 4.6024000 2
21551 21558 21560 21561 4 180.0000771 4.6024000 2
21556 21558 21560 21561 1 180.0000771 15.1670000 2
21559 21558 21560 21561 1 180.0000771 15.1670000 2
21551 21560 21558 21556 1 180.0000771 15.1670000 2
21551 21560 21558 21559 1 180.0000771 15.1670000 2
21556 21560 21558 21559 4 180.0000771 4.6024000 2
21562 21563 21564 21565 1 180.0000771 15.1670000 2
21562 21563 21564 21566 1 180.0000771 15.1670000 2
21565 21563 21564 21566 4 180.0000771 4.6024000 2
21562 21563 21572 21564 4 180.0000771 4.6024000 2
21562 21563 21572 21570 1 180.0000771 15.1670000 2
21562 21563 21572 21573 1 180.0000771 15.1670000 2
21564 21563 21572 21570 1 180.0000771 15.1670000 2
21564 21563 21572 21573 1 180.0000771 15.1670000 2
21565 21564 21563 21572 1 180.0000771 15.1670000 2
21566 21564 21563 21572 1 180.0000771 15.1670000 2
21563 21564 21566 21567 1 180.0000771 15.1670000 2
21563 21564 21566 21568 1 180.0000771 15.1670000 2
21565 21564 21566 21567 1 180.0000771 15.1670000 2
21565 21564 21566 21568 1 180.0000771 15.1670000 2
21564 21566 21568 21569 1 180.0000771 15.1670000 2
21564 21566 21568 21570 1 180.0000771 15.1670000 2
21567 21566 21568 21569 1 180.0000771 15.1670000 2
21567 21566 21568 21570 1 180.0000771 15.1670000 2
21564 21568 21566 21567 4 180.0000771 4.6024000 2
21566 21568 21570 21571 1 180.0000771 15.1670000 2
21566 21568 21570 21572 1 180.0000771 15.1670000 2
21569 21568 21570 21571 1 180.0000771 15.1670000 2
21569 21568 21570 21572 1 180.0000771 15.1670000 2
21566 21570 21568 21569 4 180.0000771 4.6024000 2
21563 21570 21572 21573 4 180.0000771 4.6024000 2
21568 21570 21572 21573 1 180.0000771 15.1670000 2
21571 21570 21572 21573 1 180.0000771 15.1670000 2
21563 21572 21570 21568 1 180.0000771 15.1670000 2
21563 21572 21570 21571 1 180.0000771 15.1670000 2
21568 21572 21570 21571 4 180.0000771 4.6024000 2
21574 21575 21576 21577 1 180.0000771 15.1670000 2
21574 21575 21576 21578 1 180.0000771 15.1670000 2
21577 21575 21576 21578 4 180.0000771 4.6024000 2
21574 21575 21584 21576 4 180.0000771 4.6024000 2
21574 21575 21584 21582 1 180.0000771 15.1670000 2
21574 21575 21584 21585 1 180.0000771 15.1670000 2
21576 21575 21584 21582 1 180.0000771 15.1670000 2
21576 21575 21584 21585 1 180.0000771 15.1670000 2
21577 21576 21575 21584 1 180.0000771 15.1670000 2
21578 21576 21575 21584 1 180.0000771 15.1670000 2
21575 21576 21578 21579 1 180.0000771 15.1670000 2
21575 21576 21578 21580 1 180.0000771 15.1670000 2
21577 21576 21578 21579 1 180.0000771 15.1670000 2
21577 21576 21578 21580 1 180.0000771 15.1670000 2
21576 21578 21580 21581 1 180.0000771 15.1670000 2
21576 21578 21580 21582 1 180.0000771 15.1670000 2
21579 21578 21580 21581 1 180.0000771 15.1670000 2
21579 21578 21580 21582 1 180.0000771 15.1670000 2
21576 21580 21578 21579 4 180.0000771 4.6024000 2
21578 21580 21582 21583 1 180.0000771 15.1670000 2
21578 21580 21582 21584 1 180.0000771 15.1670000 2
21581 21580 21582 21583 1 180.0000771 15.1670000 2
21581 21580 21582 21584 1 180.0000771 15.1670000 2
21578 21582 21580 21581 4 180.0000771 4.6024000 2
21575 21582 21584 21585 4 180.0000771 4.6024000 2
21580 21582 21584 21585 1 180.0000771 15.1670000 2
21583 21582 21584 21585 1 180.0000771 15.1670000 2
21575 21584 21582 21580 1 180.0000771 15.1670000 2
21575 21584 21582 21583 1 180.0000771 15.1670000 2
21580 21584 21582 21583 4 180.0000771 4.6024000 2
21586 21587 21588 21589 1 180.0000771 15.1670000 2
21586 21587 21588 21590 1 180.0000771 15.1670000 2
21589 21587 21588 21590 4 180.0000771 4.6024000 2
21586 21587 21596 21588 4 180.0000771 4.6024000 2
21586 21587 21596 21594 1 180.0000771 15.1670000 2
21586 21587 21596 21597 1 180.0000771 15.1670000 2
21588 21587 21596 21594 1 180.0000771 15.1670000 2
21588 21587 21596 21597 1 180.0000771 15.1670000 2
21589 21588 21587 21596 1 180.0000771 15.1670000 2
21590 21588 21587 21596 1 180.0000771 15.1670000 2
21587 21588 21590 21591 1 180.0000771 15.1670000 2
21587 21588 21590 21592 1 180.0000771 15.1670000 2
21589 21588 21590 21591 1 180.0000771 15.1670000 2
21589 21588 21590 21592 1 180.0000771 15.1670000 2
21588 21590 21592 21593 1 180.0000771 15.1670000 2
21588 21590 21592 21594 1 180.0000771 15.1670000 2
21591 21590 21592 21593 1 180.0000771 15.1670000 2
21591 21590 21592 21594 1 180.0000771 15.1670000 2
21588 21592 21590 21591 4 180.0000771 4.6024000 2
21590 21592 21594 21595 1 180.0000771 15.1670000 2
21590 21592 21594 21596 1 180.0000771 15.1670000 2
21593 21592 21594 21595 1 180.0000771 15.1670000 2
21593 21592 21594 21596 1 180.0000771 15.1670000 2
21590 21594 21592 21593 4 180.0000771 4.6024000 2
21587 21594 21596 21597 4 180.0000771 4.6024000 2
21592 21594 21596 21597 1 180.0000771 15.1670000 2
21595 21594 21596 21597 1 180.0000771 15.1670000 2
21587 21596 21594 21592 1 180.0000771 15.1670000 2
21587 21596 21594 21595 1 180.0000771 15.1670000 2
21592 21596 21594 21595 4 180.0000771 4.6024000 2
21598 21599 21600 21601 1 180.0000771 15.1670000 2
21598 21599 21600 21602 1 180.0000771 15.1670000 2
21601 21599 21600 21602 4 180.0000771 4.6024000 2
21598 21599 21608 21600 4 180.0000771 4.6024000 2
21598 21599 21608 21606 1 180.0000771 15.1670000 2
21598 21599 21608 21609 1 180.0000771 15.1670000 2
21600 21599 21608 21606 1 180.0000771 15.1670000 2
21600 21599 21608 21609 1 180.0000771 15.1670000 2
21601 21600 21599 21608 1 180.0000771 15.1670000 2
21602 21600 21599 21608 1 180.0000771 15.1670000 2
21599 21600 21602 21603 1 180.0000771 15.1670000 2
21599 21600 21602 21604 1 180.0000771 15.1670000 2
21601 21600 21602 21603 1 180.0000771 15.1670000 2
21601 21600 21602 21604 1 180.0000771 15.1670000 2
21600 21602 21604 21605 1 180.0000771 15.1670000 2
21600 21602 21604 21606 1 180.0000771 15.1670000 2
21603 21602 21604 21605 1 180.0000771 15.1670000 2
21603 21602 21604 21606 1 180.0000771 15.1670000 2
21600 21604 21602 21603 4 180.0000771 4.6024000 2
21602 21604 21606 21607 1 180.0000771 15.1670000 2
21602 21604 21606 21608 1 180.0000771 15.1670000 2
21605 21604 21606 21607 1 180.0000771 15.1670000 2
21605 21604 21606 21608 1 180.0000771 15.1670000 2
21602 21606 21604 21605 4 180.0000771 4.6024000 2
21599 21606 21608 21609 4 180.0000771 4.6024000 2
21604 21606 21608 21609 1 180.0000771 15.1670000 2
21607 21606 21608 21609 1 180.0000771 15.1670000 2
21599 21608 21606 21604 1 180.0000771 15.1670000 2
21599 21608 21606 21607 1 180.0000771 15.1670000 2
21604 21608 21606 21607 4 180.0000771 4.6024000 2
21610 21611 21612 21613 1 180.0000771 15.1670000 2
21610 21611 21612 21614 1 180.0000771 15.1670000 2
21613 21611 21612 21614 4 180.0000771 4.6024000 2
21610 21611 21620 21612 4 180.0000771 4.6024000 2
21610 21611 21620 21618 1 180.0000771 15.1670000 2
21610 21611 21620 21621 1 180.0000771 15.1670000 2
21612 21611 21620 21618 1 180.0000771 15.1670000 2
21612 21611 21620 21621 1 180.0000771 15.1670000 2
21613 21612 21611 21620 1 180.0000771 15.1670000 2
21614 21612 21611 21620 1 180.0000771 15.1670000 2
21611 21612 21614 21615 1 180.0000771 15.1670000 2
21611 21612 21614 21616 1 180.0000771 15.1670000 2
21613 21612 21614 21615 1 180.0000771 15.1670000 2
21613 21612 21614 21616 1 180.0000771 15.1670000 2
21612 21614 21616 21617 1 180.0000771 15.1670000 2
21612 21614 21616 21618 1 180.0000771 15.1670000 2
21615 21614 21616 21617 1 180.0000771 15.1670000 2
21615 21614 21616 21618 1 180.0000771 15.1670000 2
21612 21616 21614 21615 4 180.0000771 4.6024000 2
21614 21616 21618 21619 1 180.0000771 15.1670000 2
21614 21616 21618 21620 1 180.0000771 15.1670000 2
21617 21616 21618 21619 1 180.0000771 15.1670000 2
21617 21616 21618 21620 1 180.0000771 15.1670000 2
21614 21618 21616 21617 4 180.0000771 4.6024000 2
21611 21618 21620 21621 4 180.0000771 4.6024000 2
21616 21618 21620 21621 1 180.0000771 15.1670000 2
21619 21618 21620 21621 1 180.0000771 15.1670000 2
21611 21620 21618 21616 1 180.0000771 15.1670000 2
21611 21620 21618 21619 1 180.0000771 15.1670000 2
21616 21620 21618 21619 4 180.0000771 4.6024000 2
21622 21623 21624 21625 1 180.0000771 15.1670000 2
21622 21623 21624 21626 1 180.0000771 15.1670000 2
21625 21623 21624 21626 4 180.0000771 4.6024000 2
21622 21623 21632 21624 4 180.0000771 4.6024000 2
21622 21623 21632 21630 1 180.0000771 15.1670000 2
21622 21623 21632 21633 1 180.0000771 15.1670000 2
21624 21623 21632 21630 1 180.0000771 15.1670000 2
21624 21623 21632 21633 1 180.0000771 15.1670000 2
21625 21624 21623 21632 1 180.0000771 15.1670000 2
21626 21624 21623 21632 1 180.0000771 15.1670000 2
21623 21624 21626 21627 1 180.0000771 15.1670000 2
21623 21624 21626 21628 1 180.0000771 15.1670000 2
21625 21624 21626 21627 1 180.0000771 15.1670000 2
21625 21624 21626 21628 1 180.0000771 15.1670000 2
21624 21626 21628 21629 1 180.0000771 15.1670000 2
21624 21626 21628 21630 1 180.0000771 15.1670000 2
21627 21626 21628 21629 1 180.0000771 15.1670000 2
21627 21626 21628 21630 1 180.0000771 15.1670000 2
21624 21628 21626 21627 4 180.0000771 4.6024000 2
21626 21628 21630 21631 1 180.0000771 15.1670000 2
21626 21628 21630 21632 1 180.0000771 15.1670000 2
21629 21628 21630 21631 1 180.0000771 15.1670000 2
21629 21628 21630 21632 1 180.0000771 15.1670000 2
21626 21630 21628 21629 4 180.0000771 4.6024000 2
21623 21630 21632 21633 4 180.0000771 4.6024000 2
21628 21630 21632 21633 1 180.0000771 15.1670000 2
21631 21630 21632 21633 1 180.0000771 15.1670000 2
21623 21632 21630 21628 1 180.0000771 15.1670000 2
21623 21632 21630 21631 1 180.0000771 15.1670000 2
21628 21632 21630 21631 4 180.0000771 4.6024000 2
21634 21635 21636 21637 1 180.0000771 15.1670000 2
21634 21635 21636 21638 1 180.0000771 15.1670000 2
21637 21635 21636 21638 4 180.0000771 4.6024000 2
21634 21635 21644 21636 4 180.0000771 4.6024000 2
21634 21635 21644 21642 1 180.0000771 15.1670000 2
21634 21635 21644 21645 1 180.0000771 15.1670000 2
21636 21635 21644 21642 1 180.0000771 15.1670000 2
21636 21635 21644 21645 1 180.0000771 15.1670000 2
21637 21636 21635 21644 1 180.0000771 15.1670000 2
21638 21636 21635 21644 1 180.0000771 15.1670000 2
21635 21636 21638 21639 1 180.0000771 15.1670000 2
21635 21636 21638 21640 1 180.0000771 15.1670000 2
21637 21636 21638 21639 1 180.0000771 15.1670000 2
21637 21636 21638 21640 1 180.0000771 15.1670000 2
21636 21638 21640 21641 1 180.0000771 15.1670000 2
21636 21638 21640 21642 1 180.0000771 15.1670000 2
21639 21638 21640 21641 1 180.0000771 15.1670000 2
21639 21638 21640 21642 1 180.0000771 15.1670000 2
21636 21640 21638 21639 4 180.0000771 4.6024000 2
21638 21640 21642 21643 1 180.0000771 15.1670000 2
21638 21640 21642 21644 1 180.0000771 15.1670000 2
21641 21640 21642 21643 1 180.0000771 15.1670000 2
21641 21640 21642 21644 1 180.0000771 15.1670000 2
21638 21642 21640 21641 4 180.0000771 4.6024000 2
21635 21642 21644 21645 4 180.0000771 4.6024000 2
21640 21642 21644 21645 1 180.0000771 15.1670000 2
21643 21642 21644 21645 1 180.0000771 15.1670000 2
21635 21644 21642 21640 1 180.0000771 15.1670000 2
21635 21644 21642 21643 1 180.0000771 15.1670000 2
21640 21644 21642 21643 4 180.0000771 4.6024000 2
21646 21647 21648 21649 1 180.0000771 15.1670000 2
21646 21647 21648 21650 1 180.0000771 15.1670000 2
21649 21647 21648 21650 4 180.0000771 4.6024000 2
21646 21647 21656 21648 4 180.0000771 4.6024000 2
21646 21647 21656 21654 1 180.0000771 15.1670000 2
21646 21647 21656 21657 1 180.0000771 15.1670000 2
21648 21647 21656 21654 1 180.0000771 15.1670000 2
21648 21647 21656 21657 1 180.0000771 15.1670000 2
21649 21648 21647 21656 1 180.0000771 15.1670000 2
21650 21648 21647 21656 1 180.0000771 15.1670000 2
21647 21648 21650 21651 1 180.0000771 15.1670000 2
21647 21648 21650 21652 1 180.0000771 15.1670000 2
21649 21648 21650 21651 1 180.0000771 15.1670000 2
21649 21648 21650 21652 1 180.0000771 15.1670000 2
21648 21650 21652 21653 1 180.0000771 15.1670000 2
21648 21650 21652 21654 1 180.0000771 15.1670000 2
21651 21650 21652 21653 1 180.0000771 15.1670000 2
21651 21650 21652 21654 1 180.0000771 15.1670000 2
21648 21652 21650 21651 4 180.0000771 4.6024000 2
21650 21652 21654 21655 1 180.0000771 15.1670000 2
21650 21652 21654 21656 1 180.0000771 15.1670000 2
21653 21652 21654 21655 1 180.0000771 15.1670000 2
21653 21652 21654 21656 1 180.0000771 15.1670000 2
21650 21654 21652 21653 4 180.0000771 4.6024000 2
21647 21654 21656 21657 4 180.0000771 4.6024000 2
21652 21654 21656 21657 1 180.0000771 15.1670000 2
21655 21654 21656 21657 1 180.0000771 15.1670000 2
21647 21656 21654 21652 1 180.0000771 15.1670000 2
21647 21656 21654 21655 1 180.0000771 15.1670000 2
21652 21656 21654 21655 4 180.0000771 4.6024000 2
21658 21659 21660 21661 1 180.0000771 15.1670000 2
21658 21659 21660 21662 1 180.0000771 15.1670000 2
21661 21659 21660 21662 4 180.0000771 4.6024000 2
21658 21659 21668 21660 4 180.0000771 4.6024000 2
21658 21659 21668 21666 1 180.0000771 15.1670000 2
21658 21659 21668 21669 1 180.0000771 15.1670000 2
21660 21659 21668 21666 1 180.0000771 15.1670000 2
21660 21659 21668 21669 1 180.0000771 15.1670000 2
21661 21660 21659 21668 1 180.0000771 15.1670000 2
21662 21660 21659 21668 1 180.0000771 15.1670000 2
21659 21660 21662 21663 1 180.0000771 15.1670000 2
21659 21660 21662 21664 1 180.0000771 15.1670000 2
21661 21660 21662 21663 1 180.0000771 15.1670000 2
21661 21660 21662 21664 1 180.0000771 15.1670000 2
21660 21662 21664 21665 1 180.0000771 15.1670000 2
21660 21662 21664 21666 1 180.0000771 15.1670000 2
21663 21662 21664 21665 1 180.0000771 15.1670000 2
21663 21662 21664 21666 1 180.0000771 15.1670000 2
21660 21664 21662 21663 4 180.0000771 4.6024000 2
21662 21664 21666 21667 1 180.0000771 15.1670000 2
21662 21664 21666 21668 1 180.0000771 15.1670000 2
21665 21664 21666 21667 1 180.0000771 15.1670000 2
21665 21664 21666 21668 1 180.0000771 15.1670000 2
21662 21666 21664 21665 4 180.0000771 4.6024000 2
21659 21666 21668 21669 4 180.0000771 4.6024000 2
21664 21666 21668 21669 1 180.0000771 15.1670000 2
21667 21666 21668 21669 1 180.0000771 15.1670000 2
21659 21668 21666 21664 1 180.0000771 15.1670000 2
21659 21668 21666 21667 1 180.0000771 15.1670000 2
21664 21668 21666 21667 4 180.0000771 4.6024000 2
21670 21671 21672 21673 1 180.0000771 15.1670000 2
21670 21671 21672 21674 1 180.0000771 15.1670000 2
21673 21671 21672 21674 4 180.0000771 4.6024000 2
21670 21671 21680 21672 4 180.0000771 4.6024000 2
21670 21671 21680 21678 1 180.0000771 15.1670000 2
21670 21671 21680 21681 1 180.0000771 15.1670000 2
21672 21671 21680 21678 1 180.0000771 15.1670000 2
21672 21671 21680 21681 1 180.0000771 15.1670000 2
21673 21672 21671 21680 1 180.0000771 15.1670000 2
21674 21672 21671 21680 1 180.0000771 15.1670000 2
21671 21672 21674 21675 1 180.0000771 15.1670000 2
21671 21672 21674 21676 1 180.0000771 15.1670000 2
21673 21672 21674 21675 1 180.0000771 15.1670000 2
21673 21672 21674 21676 1 180.0000771 15.1670000 2
21672 21674 21676 21677 1 180.0000771 15.1670000 2
21672 21674 21676 21678 1 180.0000771 15.1670000 2
21675 21674 21676 21677 1 180.0000771 15.1670000 2
21675 21674 21676 21678 1 180.0000771 15.1670000 2
21672 21676 21674 21675 4 180.0000771 4.6024000 2
21674 21676 21678 21679 1 180.0000771 15.1670000 2
21674 21676 21678 21680 1 180.0000771 15.1670000 2
21677 21676 21678 21679 1 180.0000771 15.1670000 2
21677 21676 21678 21680 1 180.0000771 15.1670000 2
21674 21678 21676 21677 4 180.0000771 4.6024000 2
21671 21678 21680 21681 4 180.0000771 4.6024000 2
21676 21678 21680 21681 1 180.0000771 15.1670000 2
21679 21678 21680 21681 1 180.0000771 15.1670000 2
21671 21680 21678 21676 1 180.0000771 15.1670000 2
21671 21680 21678 21679 1 180.0000771 15.1670000 2
21676 21680 21678 21679 4 180.0000771 4.6024000 2
21682 21683 21684 21685 1 180.0000771 15.1670000 2
21682 21683 21684 21686 1 180.0000771 15.1670000 2
21685 21683 21684 21686 4 180.0000771 4.6024000 2
21682 21683 21692 21684 4 180.0000771 4.6024000 2
21682 21683 21692 21690 1 180.0000771 15.1670000 2
21682 21683 21692 21693 1 180.0000771 15.1670000 2
21684 21683 21692 21690 1 180.0000771 15.1670000 2
21684 21683 21692 21693 1 180.0000771 15.1670000 2
21685 21684 21683 21692 1 180.0000771 15.1670000 2
21686 21684 21683 21692 1 180.0000771 15.1670000 2
21683 21684 21686 21687 1 180.0000771 15.1670000 2
21683 21684 21686 21688 1 180.0000771 15.1670000 2
21685 21684 21686 21687 1 180.0000771 15.1670000 2
21685 21684 21686 21688 1 180.0000771 15.1670000 2
21684 21686 21688 21689 1 180.0000771 15.1670000 2
21684 21686 21688 21690 1 180.0000771 15.1670000 2
21687 21686 21688 21689 1 180.0000771 15.1670000 2
21687 21686 21688 21690 1 180.0000771 15.1670000 2
21684 21688 21686 21687 4 180.0000771 4.6024000 2
21686 21688 21690 21691 1 180.0000771 15.1670000 2
21686 21688 21690 21692 1 180.0000771 15.1670000 2
21689 21688 21690 21691 1 180.0000771 15.1670000 2
21689 21688 21690 21692 1 180.0000771 15.1670000 2
21686 21690 21688 21689 4 180.0000771 4.6024000 2
21683 21690 21692 21693 4 180.0000771 4.6024000 2
21688 21690 21692 21693 1 180.0000771 15.1670000 2
21691 21690 21692 21693 1 180.0000771 15.1670000 2
21683 21692 21690 21688 1 180.0000771 15.1670000 2
21683 21692 21690 21691 1 180.0000771 15.1670000 2
21688 21692 21690 21691 4 180.0000771 4.6024000 2
21694 21695 21696 21697 1 180.0000771 15.1670000 2
21694 21695 21696 21698 1 180.0000771 15.1670000 2
21697 21695 21696 21698 4 180.0000771 4.6024000 2
21694 21695 21704 21696 4 180.0000771 4.6024000 2
21694 21695 21704 21702 1 180.0000771 15.1670000 2
21694 21695 21704 21705 1 180.0000771 15.1670000 2
21696 21695 21704 21702 1 180.0000771 15.1670000 2
21696 21695 21704 21705 1 180.0000771 15.1670000 2
21697 21696 21695 21704 1 180.0000771 15.1670000 2
21698 21696 21695 21704 1 180.0000771 15.1670000 2
21695 21696 21698 21699 1 180.0000771 15.1670000 2
21695 21696 21698 21700 1 180.0000771 15.1670000 2
21697 21696 21698 21699 1 180.0000771 15.1670000 2
21697 21696 21698 21700 1 180.0000771 15.1670000 2
21696 21698 21700 21701 1 180.0000771 15.1670000 2
21696 21698 21700 21702 1 180.0000771 15.1670000 2
21699 21698 21700 21701 1 180.0000771 15.1670000 2
21699 21698 21700 21702 1 180.0000771 15.1670000 2
21696 21700 21698 21699 4 180.0000771 4.6024000 2
21698 21700 21702 21703 1 180.0000771 15.1670000 2
21698 21700 21702 21704 1 180.0000771 15.1670000 2
21701 21700 21702 21703 1 180.0000771 15.1670000 2
21701 21700 21702 21704 1 180.0000771 15.1670000 2
21698 21702 21700 21701 4 180.0000771 4.6024000 2
21695 21702 21704 21705 4 180.0000771 4.6024000 2
21700 21702 21704 21705 1 180.0000771 15.1670000 2
21703 21702 21704 21705 1 180.0000771 15.1670000 2
21695 21704 21702 21700 1 180.0000771 15.1670000 2
21695 21704 21702 21703 1 180.0000771 15.1670000 2
21700 21704 21702 21703 4 180.0000771 4.6024000 2
21706 21707 21708 21709 1 180.0000771 15.1670000 2
21706 21707 21708 21710 1 180.0000771 15.1670000 2
21709 21707 21708 21710 4 180.0000771 4.6024000 2
21706 21707 21716 21708 4 180.0000771 4.6024000 2
21706 21707 21716 21714 1 180.0000771 15.1670000 2
21706 21707 21716 21717 1 180.0000771 15.1670000 2
21708 21707 21716 21714 1 180.0000771 15.1670000 2
21708 21707 21716 21717 1 180.0000771 15.1670000 2
21709 21708 21707 21716 1 180.0000771 15.1670000 2
21710 21708 21707 21716 1 180.0000771 15.1670000 2
21707 21708 21710 21711 1 180.0000771 15.1670000 2
21707 21708 21710 21712 1 180.0000771 15.1670000 2
21709 21708 21710 21711 1 180.0000771 15.1670000 2
21709 21708 21710 21712 1 180.0000771 15.1670000 2
21708 21710 21712 21713 1 180.0000771 15.1670000 2
21708 21710 21712 21714 1 180.0000771 15.1670000 2
21711 21710 21712 21713 1 180.0000771 15.1670000 2
21711 21710 21712 21714 1 180.0000771 15.1670000 2
21708 21712 21710 21711 4 180.0000771 4.6024000 2
21710 21712 21714 21715 1 180.0000771 15.1670000 2
21710 21712 21714 21716 1 180.0000771 15.1670000 2
21713 21712 21714 21715 1 180.0000771 15.1670000 2
21713 21712 21714 21716 1 180.0000771 15.1670000 2
21710 21714 21712 21713 4 180.0000771 4.6024000 2
21707 21714 21716 21717 4 180.0000771 4.6024000 2
21712 21714 21716 21717 1 180.0000771 15.1670000 2
21715 21714 21716 21717 1 180.0000771 15.1670000 2
21707 21716 21714 21712 1 180.0000771 15.1670000 2
21707 21716 21714 21715 1 180.0000771 15.1670000 2
21712 21716 21714 21715 4 180.0000771 4.6024000 2
21718 21719 21720 21721 1 180.0000771 15.1670000 2
21718 21719 21720 21722 1 180.0000771 15.1670000 2
21721 21719 21720 21722 4 180.0000771 4.6024000 2
21718 21719 21728 21720 4 180.0000771 4.6024000 2
21718 21719 21728 21726 1 180.0000771 15.1670000 2
21718 21719 21728 21729 1 180.0000771 15.1670000 2
21720 21719 21728 21726 1 180.0000771 15.1670000 2
21720 21719 21728 21729 1 180.0000771 15.1670000 2
21721 21720 21719 21728 1 180.0000771 15.1670000 2
21722 21720 21719 21728 1 180.0000771 15.1670000 2
21719 21720 21722 21723 1 180.0000771 15.1670000 2
21719 21720 21722 21724 1 180.0000771 15.1670000 2
21721 21720 21722 21723 1 180.0000771 15.1670000 2
21721 21720 21722 21724 1 180.0000771 15.1670000 2
21720 21722 21724 21725 1 180.0000771 15.1670000 2
21720 21722 21724 21726 1 180.0000771 15.1670000 2
21723 21722 21724 21725 1 180.0000771 15.1670000 2
21723 21722 21724 21726 1 180.0000771 15.1670000 2
21720 21724 21722 21723 4 180.0000771 4.6024000 2
21722 21724 21726 21727 1 180.0000771 15.1670000 2
21722 21724 21726 21728 1 180.0000771 15.1670000 2
21725 21724 21726 21727 1 180.0000771 15.1670000 2
21725 21724 21726 21728 1 180.0000771 15.1670000 2
21722 21726 21724 21725 4 180.0000771 4.6024000 2
21719 21726 21728 21729 4 180.0000771 4.6024000 2
21724 21726 21728 21729 1 180.0000771 15.1670000 2
21727 21726 21728 21729 1 180.0000771 15.1670000 2
21719 21728 21726 21724 1 180.0000771 15.1670000 2
21719 21728 21726 21727 1 180.0000771 15.1670000 2
21724 21728 21726 21727 4 180.0000771 4.6024000 2
21730 21731 21732 21733 1 180.0000771 15.1670000 2
21730 21731 21732 21734 1 180.0000771 15.1670000 2
21733 21731 21732 21734 4 180.0000771 4.6024000 2
21730 21731 21740 21732 4 180.0000771 4.6024000 2
21730 21731 21740 21738 1 180.0000771 15.1670000 2
21730 21731 21740 21741 1 180.0000771 15.1670000 2
21732 21731 21740 21738 1 180.0000771 15.1670000 2
21732 21731 21740 21741 1 180.0000771 15.1670000 2
21733 21732 21731 21740 1 180.0000771 15.1670000 2
21734 21732 21731 21740 1 180.0000771 15.1670000 2
21731 21732 21734 21735 1 180.0000771 15.1670000 2
21731 21732 21734 21736 1 180.0000771 15.1670000 2
21733 21732 21734 21735 1 180.0000771 15.1670000 2
21733 21732 21734 21736 1 180.0000771 15.1670000 2
21732 21734 21736 21737 1 180.0000771 15.1670000 2
21732 21734 21736 21738 1 180.0000771 15.1670000 2
21735 21734 21736 21737 1 180.0000771 15.1670000 2
21735 21734 21736 21738 1 180.0000771 15.1670000 2
21732 21736 21734 21735 4 180.0000771 4.6024000 2
21734 21736 21738 21739 1 180.0000771 15.1670000 2
21734 21736 21738 21740 1 180.0000771 15.1670000 2
21737 21736 21738 21739 1 180.0000771 15.1670000 2
21737 21736 21738 21740 1 180.0000771 15.1670000 2
21734 21738 21736 21737 4 180.0000771 4.6024000 2
21731 21738 21740 21741 4 180.0000771 4.6024000 2
21736 21738 21740 21741 1 180.0000771 15.1670000 2
21739 21738 21740 21741 1 180.0000771 15.1670000 2
21731 21740 21738 21736 1 180.0000771 15.1670000 2
21731 21740 21738 21739 1 180.0000771 15.1670000 2
21736 21740 21738 21739 4 180.0000771 4.6024000 2
21742 21743 21744 21745 1 180.0000771 15.1670000 2
21742 21743 21744 21746 1 180.0000771 15.1670000 2
21745 21743 21744 21746 4 180.0000771 4.6024000 2
21742 21743 21752 21744 4 180.0000771 4.6024000 2
21742 21743 21752 21750 1 180.0000771 15.1670000 2
21742 21743 21752 21753 1 180.0000771 15.1670000 2
21744 21743 21752 21750 1 180.0000771 15.1670000 2
21744 21743 21752 21753 1 180.0000771 15.1670000 2
21745 21744 21743 21752 1 180.0000771 15.1670000 2
21746 21744 21743 21752 1 180.0000771 15.1670000 2
21743 21744 21746 21747 1 180.0000771 15.1670000 2
21743 21744 21746 21748 1 180.0000771 15.1670000 2
21745 21744 21746 21747 1 180.0000771 15.1670000 2
21745 21744 21746 21748 1 180.0000771 15.1670000 2
21744 21746 21748 21749 1 180.0000771 15.1670000 2
21744 21746 21748 21750 1 180.0000771 15.1670000 2
21747 21746 21748 21749 1 180.0000771 15.1670000 2
21747 21746 21748 21750 1 180.0000771 15.1670000 2
21744 21748 21746 21747 4 180.0000771 4.6024000 2
21746 21748 21750 21751 1 180.0000771 15.1670000 2
21746 21748 21750 21752 1 180.0000771 15.1670000 2
21749 21748 21750 21751 1 180.0000771 15.1670000 2
21749 21748 21750 21752 1 180.0000771 15.1670000 2
21746 21750 21748 21749 4 180.0000771 4.6024000 2
21743 21750 21752 21753 4 180.0000771 4.6024000 2
21748 21750 21752 21753 1 180.0000771 15.1670000 2
21751 21750 21752 21753 1 180.0000771 15.1670000 2
21743 21752 21750 21748 1 180.0000771 15.1670000 2
21743 21752 21750 21751 1 180.0000771 15.1670000 2
21748 21752 21750 21751 4 180.0000771 4.6024000 2
21754 21755 21756 21757 1 180.0000771 15.1670000 2
21754 21755 21756 21758 1 180.0000771 15.1670000 2
21757 21755 21756 21758 4 180.0000771 4.6024000 2
21754 21755 21764 21756 4 180.0000771 4.6024000 2
21754 21755 21764 21762 1 180.0000771 15.1670000 2
21754 21755 21764 21765 1 180.0000771 15.1670000 2
21756 21755 21764 21762 1 180.0000771 15.1670000 2
21756 21755 21764 21765 1 180.0000771 15.1670000 2
21757 21756 21755 21764 1 180.0000771 15.1670000 2
21758 21756 21755 21764 1 180.0000771 15.1670000 2
21755 21756 21758 21759 1 180.0000771 15.1670000 2
21755 21756 21758 21760 1 180.0000771 15.1670000 2
21757 21756 21758 21759 1 180.0000771 15.1670000 2
21757 21756 21758 21760 1 180.0000771 15.1670000 2
21756 21758 21760 21761 1 180.0000771 15.1670000 2
21756 21758 21760 21762 1 180.0000771 15.1670000 2
21759 21758 21760 21761 1 180.0000771 15.1670000 2
21759 21758 21760 21762 1 180.0000771 15.1670000 2
21756 21760 21758 21759 4 180.0000771 4.6024000 2
21758 21760 21762 21763 1 180.0000771 15.1670000 2
21758 21760 21762 21764 1 180.0000771 15.1670000 2
21761 21760 21762 21763 1 180.0000771 15.1670000 2
21761 21760 21762 21764 1 180.0000771 15.1670000 2
21758 21762 21760 21761 4 180.0000771 4.6024000 2
21755 21762 21764 21765 4 180.0000771 4.6024000 2
21760 21762 21764 21765 1 180.0000771 15.1670000 2
21763 21762 21764 21765 1 180.0000771 15.1670000 2
21755 21764 21762 21760 1 180.0000771 15.1670000 2
21755 21764 21762 21763 1 180.0000771 15.1670000 2
21760 21764 21762 21763 4 180.0000771 4.6024000 2
21766 21767 21768 21769 1 180.0000771 15.1670000 2
21766 21767 21768 21770 1 180.0000771 15.1670000 2
21769 21767 21768 21770 4 180.0000771 4.6024000 2
21766 21767 21776 21768 4 180.0000771 4.6024000 2
21766 21767 21776 21774 1 180.0000771 15.1670000 2
21766 21767 21776 21777 1 180.0000771 15.1670000 2
21768 21767 21776 21774 1 180.0000771 15.1670000 2
21768 21767 21776 21777 1 180.0000771 15.1670000 2
21769 21768 21767 21776 1 180.0000771 15.1670000 2
21770 21768 21767 21776 1 180.0000771 15.1670000 2
21767 21768 21770 21771 1 180.0000771 15.1670000 2
21767 21768 21770 21772 1 180.0000771 15.1670000 2
21769 21768 21770 21771 1 180.0000771 15.1670000 2
21769 21768 21770 21772 1 180.0000771 15.1670000 2
21768 21770 21772 21773 1 180.0000771 15.1670000 2
21768 21770 21772 21774 1 180.0000771 15.1670000 2
21771 21770 21772 21773 1 180.0000771 15.1670000 2
21771 21770 21772 21774 1 180.0000771 15.1670000 2
21768 21772 21770 21771 4 180.0000771 4.6024000 2
21770 21772 21774 21775 1 180.0000771 15.1670000 2
21770 21772 21774 21776 1 180.0000771 15.1670000 2
21773 21772 21774 21775 1 180.0000771 15.1670000 2
21773 21772 21774 21776 1 180.0000771 15.1670000 2
21770 21774 21772 21773 4 180.0000771 4.6024000 2
21767 21774 21776 21777 4 180.0000771 4.6024000 2
21772 21774 21776 21777 1 180.0000771 15.1670000 2
21775 21774 21776 21777 1 180.0000771 15.1670000 2
21767 21776 21774 21772 1 180.0000771 15.1670000 2
21767 21776 21774 21775 1 180.0000771 15.1670000 2
21772 21776 21774 21775 4 180.0000771 4.6024000 2
21778 21779 21780 21781 1 180.0000771 15.1670000 2
21778 21779 21780 21782 1 180.0000771 15.1670000 2
21781 21779 21780 21782 4 180.0000771 4.6024000 2
21778 21779 21788 21780 4 180.0000771 4.6024000 2
21778 21779 21788 21786 1 180.0000771 15.1670000 2
21778 21779 21788 21789 1 180.0000771 15.1670000 2
21780 21779 21788 21786 1 180.0000771 15.1670000 2
21780 21779 21788 21789 1 180.0000771 15.1670000 2
21781 21780 21779 21788 1 180.0000771 15.1670000 2
21782 21780 21779 21788 1 180.0000771 15.1670000 2
21779 21780 21782 21783 1 180.0000771 15.1670000 2
21779 21780 21782 21784 1 180.0000771 15.1670000 2
21781 21780 21782 21783 1 180.0000771 15.1670000 2
21781 21780 21782 21784 1 180.0000771 15.1670000 2
21780 21782 21784 21785 1 180.0000771 15.1670000 2
21780 21782 21784 21786 1 180.0000771 15.1670000 2
21783 21782 21784 21785 1 180.0000771 15.1670000 2
21783 21782 21784 21786 1 180.0000771 15.1670000 2
21780 21784 21782 21783 4 180.0000771 4.6024000 2
21782 21784 21786 21787 1 180.0000771 15.1670000 2
21782 21784 21786 21788 1 180.0000771 15.1670000 2
21785 21784 21786 21787 1 180.0000771 15.1670000 2
21785 21784 21786 21788 1 180.0000771 15.1670000 2
21782 21786 21784 21785 4 180.0000771 4.6024000 2
21779 21786 21788 21789 4 180.0000771 4.6024000 2
21784 21786 21788 21789 1 180.0000771 15.1670000 2
21787 21786 21788 21789 1 180.0000771 15.1670000 2
21779 21788 21786 21784 1 180.0000771 15.1670000 2
21779 21788 21786 21787 1 180.0000771 15.1670000 2
21784 21788 21786 21787 4 180.0000771 4.6024000 2
21790 21791 21792 21793 1 180.0000771 15.1670000 2
21790 21791 21792 21794 1 180.0000771 15.1670000 2
21793 21791 21792 21794 4 180.0000771 4.6024000 2
21790 21791 21800 21792 4 180.0000771 4.6024000 2
21790 21791 21800 21798 1 180.0000771 15.1670000 2
21790 21791 21800 21801 1 180.0000771 15.1670000 2
21792 21791 21800 21798 1 180.0000771 15.1670000 2
21792 21791 21800 21801 1 180.0000771 15.1670000 2
21793 21792 21791 21800 1 180.0000771 15.1670000 2
21794 21792 21791 21800 1 180.0000771 15.1670000 2
21791 21792 21794 21795 1 180.0000771 15.1670000 2
21791 21792 21794 21796 1 180.0000771 15.1670000 2
21793 21792 21794 21795 1 180.0000771 15.1670000 2
21793 21792 21794 21796 1 180.0000771 15.1670000 2
21792 21794 21796 21797 1 180.0000771 15.1670000 2
21792 21794 21796 21798 1 180.0000771 15.1670000 2
21795 21794 21796 21797 1 180.0000771 15.1670000 2
21795 21794 21796 21798 1 180.0000771 15.1670000 2
21792 21796 21794 21795 4 180.0000771 4.6024000 2
21794 21796 21798 21799 1 180.0000771 15.1670000 2
21794 21796 21798 21800 1 180.0000771 15.1670000 2
21797 21796 21798 21799 1 180.0000771 15.1670000 2
21797 21796 21798 21800 1 180.0000771 15.1670000 2
21794 21798 21796 21797 4 180.0000771 4.6024000 2
21791 21798 21800 21801 4 180.0000771 4.6024000 2
21796 21798 21800 21801 1 180.0000771 15.1670000 2
21799 21798 21800 21801 1 180.0000771 15.1670000 2
21791 21800 21798 21796 1 180.0000771 15.1670000 2
21791 21800 21798 21799 1 180.0000771 15.1670000 2
21796 21800 21798 21799 4 180.0000771 4.6024000 2
21802 21803 21804 21805 1 180.0000771 15.1670000 2
21802 21803 21804 21806 1 180.0000771 15.1670000 2
21805 21803 21804 21806 4 180.0000771 4.6024000 2
21802 21803 21812 21804 4 180.0000771 4.6024000 2
21802 21803 21812 21810 1 180.0000771 15.1670000 2
21802 21803 21812 21813 1 180.0000771 15.1670000 2
21804 21803 21812 21810 1 180.0000771 15.1670000 2
21804 21803 21812 21813 1 180.0000771 15.1670000 2
21805 21804 21803 21812 1 180.0000771 15.1670000 2
21806 21804 21803 21812 1 180.0000771 15.1670000 2
21803 21804 21806 21807 1 180.0000771 15.1670000 2
21803 21804 21806 21808 1 180.0000771 15.1670000 2
21805 21804 21806 21807 1 180.0000771 15.1670000 2
21805 21804 21806 21808 1 180.0000771 15.1670000 2
21804 21806 21808 21809 1 180.0000771 15.1670000 2
21804 21806 21808 21810 1 180.0000771 15.1670000 2
21807 21806 21808 21809 1 180.0000771 15.1670000 2
21807 21806 21808 21810 1 180.0000771 15.1670000 2
21804 21808 21806 21807 4 180.0000771 4.6024000 2
21806 21808 21810 21811 1 180.0000771 15.1670000 2
21806 21808 21810 21812 1 180.0000771 15.1670000 2
21809 21808 21810 21811 1 180.0000771 15.1670000 2
21809 21808 21810 21812 1 180.0000771 15.1670000 2
21806 21810 21808 21809 4 180.0000771 4.6024000 2
21803 21810 21812 21813 4 180.0000771 4.6024000 2
21808 21810 21812 21813 1 180.0000771 15.1670000 2
21811 21810 21812 21813 1 180.0000771 15.1670000 2
21803 21812 21810 21808 1 180.0000771 15.1670000 2
21803 21812 21810 21811 1 180.0000771 15.1670000 2
21808 21812 21810 21811 4 180.0000771 4.6024000 2
21814 21815 21816 21817 1 180.0000771 15.1670000 2
21814 21815 21816 21818 1 180.0000771 15.1670000 2
21817 21815 21816 21818 4 180.0000771 4.6024000 2
21814 21815 21824 21816 4 180.0000771 4.6024000 2
21814 21815 21824 21822 1 180.0000771 15.1670000 2
21814 21815 21824 21825 1 180.0000771 15.1670000 2
21816 21815 21824 21822 1 180.0000771 15.1670000 2
21816 21815 21824 21825 1 180.0000771 15.1670000 2
21817 21816 21815 21824 1 180.0000771 15.1670000 2
21818 21816 21815 21824 1 180.0000771 15.1670000 2
21815 21816 21818 21819 1 180.0000771 15.1670000 2
21815 21816 21818 21820 1 180.0000771 15.1670000 2
21817 21816 21818 21819 1 180.0000771 15.1670000 2
21817 21816 21818 21820 1 180.0000771 15.1670000 2
21816 21818 21820 21821 1 180.0000771 15.1670000 2
21816 21818 21820 21822 1 180.0000771 15.1670000 2
21819 21818 21820 21821 1 180.0000771 15.1670000 2
21819 21818 21820 21822 1 180.0000771 15.1670000 2
21816 21820 21818 21819 4 180.0000771 4.6024000 2
21818 21820 21822 21823 1 180.0000771 15.1670000 2
21818 21820 21822 21824 1 180.0000771 15.1670000 2
21821 21820 21822 21823 1 180.0000771 15.1670000 2
21821 21820 21822 21824 1 180.0000771 15.1670000 2
21818 21822 21820 21821 4 180.0000771 4.6024000 2
21815 21822 21824 21825 4 180.0000771 4.6024000 2
21820 21822 21824 21825 1 180.0000771 15.1670000 2
21823 21822 21824 21825 1 180.0000771 15.1670000 2
21815 21824 21822 21820 1 180.0000771 15.1670000 2
21815 21824 21822 21823 1 180.0000771 15.1670000 2
21820 21824 21822 21823 4 180.0000771 4.6024000 2
21826 21827 21828 21829 1 180.0000771 15.1670000 2
21826 21827 21828 21830 1 180.0000771 15.1670000 2
21829 21827 21828 21830 4 180.0000771 4.6024000 2
21826 21827 21836 21828 4 180.0000771 4.6024000 2
21826 21827 21836 21834 1 180.0000771 15.1670000 2
21826 21827 21836 21837 1 180.0000771 15.1670000 2
21828 21827 21836 21834 1 180.0000771 15.1670000 2
21828 21827 21836 21837 1 180.0000771 15.1670000 2
21829 21828 21827 21836 1 180.0000771 15.1670000 2
21830 21828 21827 21836 1 180.0000771 15.1670000 2
21827 21828 21830 21831 1 180.0000771 15.1670000 2
21827 21828 21830 21832 1 180.0000771 15.1670000 2
21829 21828 21830 21831 1 180.0000771 15.1670000 2
21829 21828 21830 21832 1 180.0000771 15.1670000 2
21828 21830 21832 21833 1 180.0000771 15.1670000 2
21828 21830 21832 21834 1 180.0000771 15.1670000 2
21831 21830 21832 21833 1 180.0000771 15.1670000 2
21831 21830 21832 21834 1 180.0000771 15.1670000 2
21828 21832 21830 21831 4 180.0000771 4.6024000 2
21830 21832 21834 21835 1 180.0000771 15.1670000 2
21830 21832 21834 21836 1 180.0000771 15.1670000 2
21833 21832 21834 21835 1 180.0000771 15.1670000 2
21833 21832 21834 21836 1 180.0000771 15.1670000 2
21830 21834 21832 21833 4 180.0000771 4.6024000 2
21827 21834 21836 21837 4 180.0000771 4.6024000 2
21832 21834 21836 21837 1 180.0000771 15.1670000 2
21835 21834 21836 21837 1 180.0000771 15.1670000 2
21827 21836 21834 21832 1 180.0000771 15.1670000 2
21827 21836 21834 21835 1 180.0000771 15.1670000 2
21832 21836 21834 21835 4 180.0000771 4.6024000 2
21838 21839 21840 21841 1 180.0000771 15.1670000 2
21838 21839 21840 21842 1 180.0000771 15.1670000 2
21841 21839 21840 21842 4 180.0000771 4.6024000 2
21838 21839 21848 21840 4 180.0000771 4.6024000 2
21838 21839 21848 21846 1 180.0000771 15.1670000 2
21838 21839 21848 21849 1 180.0000771 15.1670000 2
21840 21839 21848 21846 1 180.0000771 15.1670000 2
21840 21839 21848 21849 1 180.0000771 15.1670000 2
21841 21840 21839 21848 1 180.0000771 15.1670000 2
21842 21840 21839 21848 1 180.0000771 15.1670000 2
21839 21840 21842 21843 1 180.0000771 15.1670000 2
21839 21840 21842 21844 1 180.0000771 15.1670000 2
21841 21840 21842 21843 1 180.0000771 15.1670000 2
21841 21840 21842 21844 1 180.0000771 15.1670000 2
21840 21842 21844 21845 1 180.0000771 15.1670000 2
21840 21842 21844 21846 1 180.0000771 15.1670000 2
21843 21842 21844 21845 1 180.0000771 15.1670000 2
21843 21842 21844 21846 1 180.0000771 15.1670000 2
21840 21844 21842 21843 4 180.0000771 4.6024000 2
21842 21844 21846 21847 1 180.0000771 15.1670000 2
21842 21844 21846 21848 1 180.0000771 15.1670000 2
21845 21844 21846 21847 1 180.0000771 15.1670000 2
21845 21844 21846 21848 1 180.0000771 15.1670000 2
21842 21846 21844 21845 4 180.0000771 4.6024000 2
21839 21846 21848 21849 4 180.0000771 4.6024000 2
21844 21846 21848 21849 1 180.0000771 15.1670000 2
21847 21846 21848 21849 1 180.0000771 15.1670000 2
21839 21848 21846 21844 1 180.0000771 15.1670000 2
21839 21848 21846 21847 1 180.0000771 15.1670000 2
21844 21848 21846 21847 4 180.0000771 4.6024000 2
21850 21851 21852 21853 1 180.0000771 15.1670000 2
21850 21851 21852 21854 1 180.0000771 15.1670000 2
21853 21851 21852 21854 4 180.0000771 4.6024000 2
21850 21851 21860 21852 4 180.0000771 4.6024000 2
21850 21851 21860 21858 1 180.0000771 15.1670000 2
21850 21851 21860 21861 1 180.0000771 15.1670000 2
21852 21851 21860 21858 1 180.0000771 15.1670000 2
21852 21851 21860 21861 1 180.0000771 15.1670000 2
21853 21852 21851 21860 1 180.0000771 15.1670000 2
21854 21852 21851 21860 1 180.0000771 15.1670000 2
21851 21852 21854 21855 1 180.0000771 15.1670000 2
21851 21852 21854 21856 1 180.0000771 15.1670000 2
21853 21852 21854 21855 1 180.0000771 15.1670000 2
21853 21852 21854 21856 1 180.0000771 15.1670000 2
21852 21854 21856 21857 1 180.0000771 15.1670000 2
21852 21854 21856 21858 1 180.0000771 15.1670000 2
21855 21854 21856 21857 1 180.0000771 15.1670000 2
21855 21854 21856 21858 1 180.0000771 15.1670000 2
21852 21856 21854 21855 4 180.0000771 4.6024000 2
21854 21856 21858 21859 1 180.0000771 15.1670000 2
21854 21856 21858 21860 1 180.0000771 15.1670000 2
21857 21856 21858 21859 1 180.0000771 15.1670000 2
21857 21856 21858 21860 1 180.0000771 15.1670000 2
21854 21858 21856 21857 4 180.0000771 4.6024000 2
21851 21858 21860 21861 4 180.0000771 4.6024000 2
21856 21858 21860 21861 1 180.0000771 15.1670000 2
21859 21858 21860 21861 1 180.0000771 15.1670000 2
21851 21860 21858 21856 1 180.0000771 15.1670000 2
21851 21860 21858 21859 1 180.0000771 15.1670000 2
21856 21860 21858 21859 4 180.0000771 4.6024000 2
21862 21863 21864 21865 1 180.0000771 15.1670000 2
21862 21863 21864 21866 1 180.0000771 15.1670000 2
21865 21863 21864 21866 4 180.0000771 4.6024000 2
21862 21863 21872 21864 4 180.0000771 4.6024000 2
21862 21863 21872 21870 1 180.0000771 15.1670000 2
21862 21863 21872 21873 1 180.0000771 15.1670000 2
21864 21863 21872 21870 1 180.0000771 15.1670000 2
21864 21863 21872 21873 1 180.0000771 15.1670000 2
21865 21864 21863 21872 1 180.0000771 15.1670000 2
21866 21864 21863 21872 1 180.0000771 15.1670000 2
21863 21864 21866 21867 1 180.0000771 15.1670000 2
21863 21864 21866 21868 1 180.0000771 15.1670000 2
21865 21864 21866 21867 1 180.0000771 15.1670000 2
21865 21864 21866 21868 1 180.0000771 15.1670000 2
21864 21866 21868 21869 1 180.0000771 15.1670000 2
21864 21866 21868 21870 1 180.0000771 15.1670000 2
21867 21866 21868 21869 1 180.0000771 15.1670000 2
21867 21866 21868 21870 1 180.0000771 15.1670000 2
21864 21868 21866 21867 4 180.0000771 4.6024000 2
21866 21868 21870 21871 1 180.0000771 15.1670000 2
21866 21868 21870 21872 1 180.0000771 15.1670000 2
21869 21868 21870 21871 1 180.0000771 15.1670000 2
21869 21868 21870 21872 1 180.0000771 15.1670000 2
21866 21870 21868 21869 4 180.0000771 4.6024000 2
21863 21870 21872 21873 4 180.0000771 4.6024000 2
21868 21870 21872 21873 1 180.0000771 15.1670000 2
21871 21870 21872 21873 1 180.0000771 15.1670000 2
21863 21872 21870 21868 1 180.0000771 15.1670000 2
21863 21872 21870 21871 1 180.0000771 15.1670000 2
21868 21872 21870 21871 4 180.0000771 4.6024000 2
21874 21875 21876 21877 1 180.0000771 15.1670000 2
21874 21875 21876 21878 1 180.0000771 15.1670000 2
21877 21875 21876 21878 4 180.0000771 4.6024000 2
21874 21875 21884 21876 4 180.0000771 4.6024000 2
21874 21875 21884 21882 1 180.0000771 15.1670000 2
21874 21875 21884 21885 1 180.0000771 15.1670000 2
21876 21875 21884 21882 1 180.0000771 15.1670000 2
21876 21875 21884 21885 1 180.0000771 15.1670000 2
21877 21876 21875 21884 1 180.0000771 15.1670000 2
21878 21876 21875 21884 1 180.0000771 15.1670000 2
21875 21876 21878 21879 1 180.0000771 15.1670000 2
21875 21876 21878 21880 1 180.0000771 15.1670000 2
21877 21876 21878 21879 1 180.0000771 15.1670000 2
21877 21876 21878 21880 1 180.0000771 15.1670000 2
21876 21878 21880 21881 1 180.0000771 15.1670000 2
21876 21878 21880 21882 1 180.0000771 15.1670000 2
21879 21878 21880 21881 1 180.0000771 15.1670000 2
21879 21878 21880 21882 1 180.0000771 15.1670000 2
21876 21880 21878 21879 4 180.0000771 4.6024000 2
21878 21880 21882 21883 1 180.0000771 15.1670000 2
21878 21880 21882 21884 1 180.0000771 15.1670000 2
21881 21880 21882 21883 1 180.0000771 15.1670000 2
21881 21880 21882 21884 1 180.0000771 15.1670000 2
21878 21882 21880 21881 4 180.0000771 4.6024000 2
21875 21882 21884 21885 4 180.0000771 4.6024000 2
21880 21882 21884 21885 1 180.0000771 15.1670000 2
21883 21882 21884 21885 1 180.0000771 15.1670000 2
21875 21884 21882 21880 1 180.0000771 15.1670000 2
21875 21884 21882 21883 1 180.0000771 15.1670000 2
21880 21884 21882 21883 4 180.0000771 4.6024000 2
21886 21887 21888 21889 1 180.0000771 15.1670000 2
21886 21887 21888 21890 1 180.0000771 15.1670000 2
21889 21887 21888 21890 4 180.0000771 4.6024000 2
21886 21887 21896 21888 4 180.0000771 4.6024000 2
21886 21887 21896 21894 1 180.0000771 15.1670000 2
21886 21887 21896 21897 1 180.0000771 15.1670000 2
21888 21887 21896 21894 1 180.0000771 15.1670000 2
21888 21887 21896 21897 1 180.0000771 15.1670000 2
21889 21888 21887 21896 1 180.0000771 15.1670000 2
21890 21888 21887 21896 1 180.0000771 15.1670000 2
21887 21888 21890 21891 1 180.0000771 15.1670000 2
21887 21888 21890 21892 1 180.0000771 15.1670000 2
21889 21888 21890 21891 1 180.0000771 15.1670000 2
21889 21888 21890 21892 1 180.0000771 15.1670000 2
21888 21890 21892 21893 1 180.0000771 15.1670000 2
21888 21890 21892 21894 1 180.0000771 15.1670000 2
21891 21890 21892 21893 1 180.0000771 15.1670000 2
21891 21890 21892 21894 1 180.0000771 15.1670000 2
21888 21892 21890 21891 4 180.0000771 4.6024000 2
21890 21892 21894 21895 1 180.0000771 15.1670000 2
21890 21892 21894 21896 1 180.0000771 15.1670000 2
21893 21892 21894 21895 1 180.0000771 15.1670000 2
21893 21892 21894 21896 1 180.0000771 15.1670000 2
21890 21894 21892 21893 4 180.0000771 4.6024000 2
21887 21894 21896 21897 4 180.0000771 4.6024000 2
21892 21894 21896 21897 1 180.0000771 15.1670000 2
21895 21894 21896 21897 1 180.0000771 15.1670000 2
21887 21896 21894 21892 1 180.0000771 15.1670000 2
21887 21896 21894 21895 1 180.0000771 15.1670000 2
21892 21896 21894 21895 4 180.0000771 4.6024000 2
21898 21899 21900 21901 1 180.0000771 15.1670000 2
21898 21899 21900 21902 1 180.0000771 15.1670000 2
21901 21899 21900 21902 4 180.0000771 4.6024000 2
21898 21899 21908 21900 4 180.0000771 4.6024000 2
21898 21899 21908 21906 1 180.0000771 15.1670000 2
21898 21899 21908 21909 1 180.0000771 15.1670000 2
21900 21899 21908 21906 1 180.0000771 15.1670000 2
21900 21899 21908 21909 1 180.0000771 15.1670000 2
21901 21900 21899 21908 1 180.0000771 15.1670000 2
21902 21900 21899 21908 1 180.0000771 15.1670000 2
21899 21900 21902 21903 1 180.0000771 15.1670000 2
21899 21900 21902 21904 1 180.0000771 15.1670000 2
21901 21900 21902 21903 1 180.0000771 15.1670000 2
21901 21900 21902 21904 1 180.0000771 15.1670000 2
21900 21902 21904 21905 1 180.0000771 15.1670000 2
21900 21902 21904 21906 1 180.0000771 15.1670000 2
21903 21902 21904 21905 1 180.0000771 15.1670000 2
21903 21902 21904 21906 1 180.0000771 15.1670000 2
21900 21904 21902 21903 4 180.0000771 4.6024000 2
21902 21904 21906 21907 1 180.0000771 15.1670000 2
21902 21904 21906 21908 1 180.0000771 15.1670000 2
21905 21904 21906 21907 1 180.0000771 15.1670000 2
21905 21904 21906 21908 1 180.0000771 15.1670000 2
21902 21906 21904 21905 4 180.0000771 4.6024000 2
21899 21906 21908 21909 4 180.0000771 4.6024000 2
21904 21906 21908 21909 1 180.0000771 15.1670000 2
21907 21906 21908 21909 1 180.0000771 15.1670000 2
21899 21908 21906 21904 1 180.0000771 15.1670000 2
21899 21908 21906 21907 1 180.0000771 15.1670000 2
21904 21908 21906 21907 4 180.0000771 4.6024000 2
21910 21911 21912 21913 1 180.0000771 15.1670000 2
21910 21911 21912 21914 1 180.0000771 15.1670000 2
21913 21911 21912 21914 4 180.0000771 4.6024000 2
21910 21911 21920 21912 4 180.0000771 4.6024000 2
21910 21911 21920 21918 1 180.0000771 15.1670000 2
21910 21911 21920 21921 1 180.0000771 15.1670000 2
21912 21911 21920 21918 1 180.0000771 15.1670000 2
21912 21911 21920 21921 1 180.0000771 15.1670000 2
21913 21912 21911 21920 1 180.0000771 15.1670000 2
21914 21912 21911 21920 1 180.0000771 15.1670000 2
21911 21912 21914 21915 1 180.0000771 15.1670000 2
21911 21912 21914 21916 1 180.0000771 15.1670000 2
21913 21912 21914 21915 1 180.0000771 15.1670000 2
21913 21912 21914 21916 1 180.0000771 15.1670000 2
21912 21914 21916 21917 1 180.0000771 15.1670000 2
21912 21914 21916 21918 1 180.0000771 15.1670000 2
21915 21914 21916 21917 1 180.0000771 15.1670000 2
21915 21914 21916 21918 1 180.0000771 15.1670000 2
21912 21916 21914 21915 4 180.0000771 4.6024000 2
21914 21916 21918 21919 1 180.0000771 15.1670000 2
21914 21916 21918 21920 1 180.0000771 15.1670000 2
21917 21916 21918 21919 1 180.0000771 15.1670000 2
21917 21916 21918 21920 1 180.0000771 15.1670000 2
21914 21918 21916 21917 4 180.0000771 4.6024000 2
21911 21918 21920 21921 4 180.0000771 4.6024000 2
21916 21918 21920 21921 1 180.0000771 15.1670000 2
21919 21918 21920 21921 1 180.0000771 15.1670000 2
21911 21920 21918 21916 1 180.0000771 15.1670000 2
21911 21920 21918 21919 1 180.0000771 15.1670000 2
21916 21920 21918 21919 4 180.0000771 4.6024000 2
21922 21923 21924 21925 1 180.0000771 15.1670000 2
21922 21923 21924 21926 1 180.0000771 15.1670000 2
21925 21923 21924 21926 4 180.0000771 4.6024000 2
21922 21923 21932 21924 4 180.0000771 4.6024000 2
21922 21923 21932 21930 1 180.0000771 15.1670000 2
21922 21923 21932 21933 1 180.0000771 15.1670000 2
21924 21923 21932 21930 1 180.0000771 15.1670000 2
21924 21923 21932 21933 1 180.0000771 15.1670000 2
21925 21924 21923 21932 1 180.0000771 15.1670000 2
21926 21924 21923 21932 1 180.0000771 15.1670000 2
21923 21924 21926 21927 1 180.0000771 15.1670000 2
21923 21924 21926 21928 1 180.0000771 15.1670000 2
21925 21924 21926 21927 1 180.0000771 15.1670000 2
21925 21924 21926 21928 1 180.0000771 15.1670000 2
21924 21926 21928 21929 1 180.0000771 15.1670000 2
21924 21926 21928 21930 1 180.0000771 15.1670000 2
21927 21926 21928 21929 1 180.0000771 15.1670000 2
21927 21926 21928 21930 1 180.0000771 15.1670000 2
21924 21928 21926 21927 4 180.0000771 4.6024000 2
21926 21928 21930 21931 1 180.0000771 15.1670000 2
21926 21928 21930 21932 1 180.0000771 15.1670000 2
21929 21928 21930 21931 1 180.0000771 15.1670000 2
21929 21928 21930 21932 1 180.0000771 15.1670000 2
21926 21930 21928 21929 4 180.0000771 4.6024000 2
21923 21930 21932 21933 4 180.0000771 4.6024000 2
21928 21930 21932 21933 1 180.0000771 15.1670000 2
21931 21930 21932 21933 1 180.0000771 15.1670000 2
21923 21932 21930 21928 1 180.0000771 15.1670000 2
21923 21932 21930 21931 1 180.0000771 15.1670000 2
21928 21932 21930 21931 4 180.0000771 4.6024000 2
21934 21935 21936 21937 1 180.0000771 15.1670000 2
21934 21935 21936 21938 1 180.0000771 15.1670000 2
21937 21935 21936 21938 4 180.0000771 4.6024000 2
21934 21935 21944 21936 4 180.0000771 4.6024000 2
21934 21935 21944 21942 1 180.0000771 15.1670000 2
21934 21935 21944 21945 1 180.0000771 15.1670000 2
21936 21935 21944 21942 1 180.0000771 15.1670000 2
21936 21935 21944 21945 1 180.0000771 15.1670000 2
21937 21936 21935 21944 1 180.0000771 15.1670000 2
21938 21936 21935 21944 1 180.0000771 15.1670000 2
21935 21936 21938 21939 1 180.0000771 15.1670000 2
21935 21936 21938 21940 1 180.0000771 15.1670000 2
21937 21936 21938 21939 1 180.0000771 15.1670000 2
21937 21936 21938 21940 1 180.0000771 15.1670000 2
21936 21938 21940 21941 1 180.0000771 15.1670000 2
21936 21938 21940 21942 1 180.0000771 15.1670000 2
21939 21938 21940 21941 1 180.0000771 15.1670000 2
21939 21938 21940 21942 1 180.0000771 15.1670000 2
21936 21940 21938 21939 4 180.0000771 4.6024000 2
21938 21940 21942 21943 1 180.0000771 15.1670000 2
21938 21940 21942 21944 1 180.0000771 15.1670000 2
21941 21940 21942 21943 1 180.0000771 15.1670000 2
21941 21940 21942 21944 1 180.0000771 15.1670000 2
21938 21942 21940 21941 4 180.0000771 4.6024000 2
21935 21942 21944 21945 4 180.0000771 4.6024000 2
21940 21942 21944 21945 1 180.0000771 15.1670000 2
21943 21942 21944 21945 1 180.0000771 15.1670000 2
21935 21944 21942 21940 1 180.0000771 15.1670000 2
21935 21944 21942 21943 1 180.0000771 15.1670000 2
21940 21944 21942 21943 4 180.0000771 4.6024000 2
21946 21947 21948 21949 1 180.0000771 15.1670000 2
21946 21947 21948 21950 1 180.0000771 15.1670000 2
21949 21947 21948 21950 4 180.0000771 4.6024000 2
21946 21947 21956 21948 4 180.0000771 4.6024000 2
21946 21947 21956 21954 1 180.0000771 15.1670000 2
21946 21947 21956 21957 1 180.0000771 15.1670000 2
21948 21947 21956 21954 1 180.0000771 15.1670000 2
21948 21947 21956 21957 1 180.0000771 15.1670000 2
21949 21948 21947 21956 1 180.0000771 15.1670000 2
21950 21948 21947 21956 1 180.0000771 15.1670000 2
21947 21948 21950 21951 1 180.0000771 15.1670000 2
21947 21948 21950 21952 1 180.0000771 15.1670000 2
21949 21948 21950 21951 1 180.0000771 15.1670000 2
21949 21948 21950 21952 1 180.0000771 15.1670000 2
21948 21950 21952 21953 1 180.0000771 15.1670000 2
21948 21950 21952 21954 1 180.0000771 15.1670000 2
21951 21950 21952 21953 1 180.0000771 15.1670000 2
21951 21950 21952 21954 1 180.0000771 15.1670000 2
21948 21952 21950 21951 4 180.0000771 4.6024000 2
21950 21952 21954 21955 1 180.0000771 15.1670000 2
21950 21952 21954 21956 1 180.0000771 15.1670000 2
21953 21952 21954 21955 1 180.0000771 15.1670000 2
21953 21952 21954 21956 1 180.0000771 15.1670000 2
21950 21954 21952 21953 4 180.0000771 4.6024000 2
21947 21954 21956 21957 4 180.0000771 4.6024000 2
21952 21954 21956 21957 1 180.0000771 15.1670000 2
21955 21954 21956 21957 1 180.0000771 15.1670000 2
21947 21956 21954 21952 1 180.0000771 15.1670000 2
21947 21956 21954 21955 1 180.0000771 15.1670000 2
21952 21956 21954 21955 4 180.0000771 4.6024000 2
21958 21959 21960 21961 1 180.0000771 15.1670000 2
21958 21959 21960 21962 1 180.0000771 15.1670000 2
21961 21959 21960 21962 4 180.0000771 4.6024000 2
21958 21959 21968 21960 4 180.0000771 4.6024000 2
21958 21959 21968 21966 1 180.0000771 15.1670000 2
21958 21959 21968 21969 1 180.0000771 15.1670000 2
21960 21959 21968 21966 1 180.0000771 15.1670000 2
21960 21959 21968 21969 1 180.0000771 15.1670000 2
21961 21960 21959 21968 1 180.0000771 15.1670000 2
21962 21960 21959 21968 1 180.0000771 15.1670000 2
21959 21960 21962 21963 1 180.0000771 15.1670000 2
21959 21960 21962 21964 1 180.0000771 15.1670000 2
21961 21960 21962 21963 1 180.0000771 15.1670000 2
21961 21960 21962 21964 1 180.0000771 15.1670000 2
21960 21962 21964 21965 1 180.0000771 15.1670000 2
21960 21962 21964 21966 1 180.0000771 15.1670000 2
21963 21962 21964 21965 1 180.0000771 15.1670000 2
21963 21962 21964 21966 1 180.0000771 15.1670000 2
21960 21964 21962 21963 4 180.0000771 4.6024000 2
21962 21964 21966 21967 1 180.0000771 15.1670000 2
21962 21964 21966 21968 1 180.0000771 15.1670000 2
21965 21964 21966 21967 1 180.0000771 15.1670000 2
21965 21964 21966 21968 1 180.0000771 15.1670000 2
21962 21966 21964 21965 4 180.0000771 4.6024000 2
21959 21966 21968 21969 4 180.0000771 4.6024000 2
21964 21966 21968 21969 1 180.0000771 15.1670000 2
21967 21966 21968 21969 1 180.0000771 15.1670000 2
21959 21968 21966 21964 1 180.0000771 15.1670000 2
21959 21968 21966 21967 1 180.0000771 15.1670000 2
21964 21968 21966 21967 4 180.0000771 4.6024000 2
21970 21971 21972 21973 1 180.0000771 15.1670000 2
21970 21971 21972 21974 1 180.0000771 15.1670000 2
21973 21971 21972 21974 4 180.0000771 4.6024000 2
21970 21971 21980 21972 4 180.0000771 4.6024000 2
21970 21971 21980 21978 1 180.0000771 15.1670000 2
21970 21971 21980 21981 1 180.0000771 15.1670000 2
21972 21971 21980 21978 1 180.0000771 15.1670000 2
21972 21971 21980 21981 1 180.0000771 15.1670000 2
21973 21972 21971 21980 1 180.0000771 15.1670000 2
21974 21972 21971 21980 1 180.0000771 15.1670000 2
21971 21972 21974 21975 1 180.0000771 15.1670000 2
21971 21972 21974 21976 1 180.0000771 15.1670000 2
21973 21972 21974 21975 1 180.0000771 15.1670000 2
21973 21972 21974 21976 1 180.0000771 15.1670000 2
21972 21974 21976 21977 1 180.0000771 15.1670000 2
21972 21974 21976 21978 1 180.0000771 15.1670000 2
21975 21974 21976 21977 1 180.0000771 15.1670000 2
21975 21974 21976 21978 1 180.0000771 15.1670000 2
21972 21976 21974 21975 4 180.0000771 4.6024000 2
21974 21976 21978 21979 1 180.0000771 15.1670000 2
21974 21976 21978 21980 1 180.0000771 15.1670000 2
21977 21976 21978 21979 1 180.0000771 15.1670000 2
21977 21976 21978 21980 1 180.0000771 15.1670000 2
21974 21978 21976 21977 4 180.0000771 4.6024000 2
21971 21978 21980 21981 4 180.0000771 4.6024000 2
21976 21978 21980 21981 1 180.0000771 15.1670000 2
21979 21978 21980 21981 1 180.0000771 15.1670000 2
21971 21980 21978 21976 1 180.0000771 15.1670000 2
21971 21980 21978 21979 1 180.0000771 15.1670000 2
21976 21980 21978 21979 4 180.0000771 4.6024000 2
21982 21983 21984 21985 1 180.0000771 15.1670000 2
21982 21983 21984 21986 1 180.0000771 15.1670000 2
21985 21983 21984 21986 4 180.0000771 4.6024000 2
21982 21983 21992 21984 4 180.0000771 4.6024000 2
21982 21983 21992 21990 1 180.0000771 15.1670000 2
21982 21983 21992 21993 1 180.0000771 15.1670000 2
21984 21983 21992 21990 1 180.0000771 15.1670000 2
21984 21983 21992 21993 1 180.0000771 15.1670000 2
21985 21984 21983 21992 1 180.0000771 15.1670000 2
21986 21984 21983 21992 1 180.0000771 15.1670000 2
21983 21984 21986 21987 1 180.0000771 15.1670000 2
21983 21984 21986 21988 1 180.0000771 15.1670000 2
21985 21984 21986 21987 1 180.0000771 15.1670000 2
21985 21984 21986 21988 1 180.0000771 15.1670000 2
21984 21986 21988 21989 1 180.0000771 15.1670000 2
21984 21986 21988 21990 1 180.0000771 15.1670000 2
21987 21986 21988 21989 1 180.0000771 15.1670000 2
21987 21986 21988 21990 1 180.0000771 15.1670000 2
21984 21988 21986 21987 4 180.0000771 4.6024000 2
21986 21988 21990 21991 1 180.0000771 15.1670000 2
21986 21988 21990 21992 1 180.0000771 15.1670000 2
21989 21988 21990 21991 1 180.0000771 15.1670000 2
21989 21988 21990 21992 1 180.0000771 15.1670000 2
21986 21990 21988 21989 4 180.0000771 4.6024000 2
21983 21990 21992 21993 4 180.0000771 4.6024000 2
21988 21990 21992 21993 1 180.0000771 15.1670000 2
21991 21990 21992 21993 1 180.0000771 15.1670000 2
21983 21992 21990 21988 1 180.0000771 15.1670000 2
21983 21992 21990 21991 1 180.0000771 15.1670000 2
21988 21992 21990 21991 4 180.0000771 4.6024000 2
21994 21995 21996 21997 1 180.0000771 15.1670000 2
21994 21995 21996 21998 1 180.0000771 15.1670000 2
21997 21995 21996 21998 4 180.0000771 4.6024000 2
21994 21995 22004 21996 4 180.0000771 4.6024000 2
21994 21995 22004 22002 1 180.0000771 15.1670000 2
21994 21995 22004 22005 1 180.0000771 15.1670000 2
21996 21995 22004 22002 1 180.0000771 15.1670000 2
21996 21995 22004 22005 1 180.0000771 15.1670000 2
21997 21996 21995 22004 1 180.0000771 15.1670000 2
21998 21996 21995 22004 1 180.0000771 15.1670000 2
21995 21996 21998 21999 1 180.0000771 15.1670000 2
21995 21996 21998 22000 1 180.0000771 15.1670000 2
21997 21996 21998 21999 1 180.0000771 15.1670000 2
21997 21996 21998 22000 1 180.0000771 15.1670000 2
21996 21998 22000 22001 1 180.0000771 15.1670000 2
21996 21998 22000 22002 1 180.0000771 15.1670000 2
21999 21998 22000 22001 1 180.0000771 15.1670000 2
21999 21998 22000 22002 1 180.0000771 15.1670000 2
21996 22000 21998 21999 4 180.0000771 4.6024000 2
21998 22000 22002 22003 1 180.0000771 15.1670000 2
21998 22000 22002 22004 1 180.0000771 15.1670000 2
22001 22000 22002 22003 1 180.0000771 15.1670000 2
22001 22000 22002 22004 1 180.0000771 15.1670000 2
21998 22002 22000 22001 4 180.0000771 4.6024000 2
21995 22002 22004 22005 4 180.0000771 4.6024000 2
22000 22002 22004 22005 1 180.0000771 15.1670000 2
22003 22002 22004 22005 1 180.0000771 15.1670000 2
21995 22004 22002 22000 1 180.0000771 15.1670000 2
21995 22004 22002 22003 1 180.0000771 15.1670000 2
22000 22004 22002 22003 4 180.0000771 4.6024000 2
22006 22007 22008 22009 1 180.0000771 15.1670000 2
22006 22007 22008 22010 1 180.0000771 15.1670000 2
22009 22007 22008 22010 4 180.0000771 4.6024000 2
22006 22007 22016 22008 4 180.0000771 4.6024000 2
22006 22007 22016 22014 1 180.0000771 15.1670000 2
22006 22007 22016 22017 1 180.0000771 15.1670000 2
22008 22007 22016 22014 1 180.0000771 15.1670000 2
22008 22007 22016 22017 1 180.0000771 15.1670000 2
22009 22008 22007 22016 1 180.0000771 15.1670000 2
22010 22008 22007 22016 1 180.0000771 15.1670000 2
22007 22008 22010 22011 1 180.0000771 15.1670000 2
22007 22008 22010 22012 1 180.0000771 15.1670000 2
22009 22008 22010 22011 1 180.0000771 15.1670000 2
22009 22008 22010 22012 1 180.0000771 15.1670000 2
22008 22010 22012 22013 1 180.0000771 15.1670000 2
22008 22010 22012 22014 1 180.0000771 15.1670000 2
22011 22010 22012 22013 1 180.0000771 15.1670000 2
22011 22010 22012 22014 1 180.0000771 15.1670000 2
22008 22012 22010 22011 4 180.0000771 4.6024000 2
22010 22012 22014 22015 1 180.0000771 15.1670000 2
22010 22012 22014 22016 1 180.0000771 15.1670000 2
22013 22012 22014 22015 1 180.0000771 15.1670000 2
22013 22012 22014 22016 1 180.0000771 15.1670000 2
22010 22014 22012 22013 4 180.0000771 4.6024000 2
22007 22014 22016 22017 4 180.0000771 4.6024000 2
22012 22014 22016 22017 1 180.0000771 15.1670000 2
22015 22014 22016 22017 1 180.0000771 15.1670000 2
22007 22016 22014 22012 1 180.0000771 15.1670000 2
22007 22016 22014 22015 1 180.0000771 15.1670000 2
22012 22016 22014 22015 4 180.0000771 4.6024000 2
22018 22019 22020 22021 1 180.0000771 15.1670000 2
22018 22019 22020 22022 1 180.0000771 15.1670000 2
22021 22019 22020 22022 4 180.0000771 4.6024000 2
22018 22019 22028 22020 4 180.0000771 4.6024000 2
22018 22019 22028 22026 1 180.0000771 15.1670000 2
22018 22019 22028 22029 1 180.0000771 15.1670000 2
22020 22019 22028 22026 1 180.0000771 15.1670000 2
22020 22019 22028 22029 1 180.0000771 15.1670000 2
22021 22020 22019 22028 1 180.0000771 15.1670000 2
22022 22020 22019 22028 1 180.0000771 15.1670000 2
22019 22020 22022 22023 1 180.0000771 15.1670000 2
22019 22020 22022 22024 1 180.0000771 15.1670000 2
22021 22020 22022 22023 1 180.0000771 15.1670000 2
22021 22020 22022 22024 1 180.0000771 15.1670000 2
22020 22022 22024 22025 1 180.0000771 15.1670000 2
22020 22022 22024 22026 1 180.0000771 15.1670000 2
22023 22022 22024 22025 1 180.0000771 15.1670000 2
22023 22022 22024 22026 1 180.0000771 15.1670000 2
22020 22024 22022 22023 4 180.0000771 4.6024000 2
22022 22024 22026 22027 1 180.0000771 15.1670000 2
22022 22024 22026 22028 1 180.0000771 15.1670000 2
22025 22024 22026 22027 1 180.0000771 15.1670000 2
22025 22024 22026 22028 1 180.0000771 15.1670000 2
22022 22026 22024 22025 4 180.0000771 4.6024000 2
22019 22026 22028 22029 4 180.0000771 4.6024000 2
22024 22026 22028 22029 1 180.0000771 15.1670000 2
22027 22026 22028 22029 1 180.0000771 15.1670000 2
22019 22028 22026 22024 1 180.0000771 15.1670000 2
22019 22028 22026 22027 1 180.0000771 15.1670000 2
22024 22028 22026 22027 4 180.0000771 4.6024000 2
22030 22031 22032 22033 1 180.0000771 15.1670000 2
22030 22031 22032 22034 1 180.0000771 15.1670000 2
22033 22031 22032 22034 4 180.0000771 4.6024000 2
22030 22031 22040 22032 4 180.0000771 4.6024000 2
22030 22031 22040 22038 1 180.0000771 15.1670000 2
22030 22031 22040 22041 1 180.0000771 15.1670000 2
22032 22031 22040 22038 1 180.0000771 15.1670000 2
22032 22031 22040 22041 1 180.0000771 15.1670000 2
22033 22032 22031 22040 1 180.0000771 15.1670000 2
22034 22032 22031 22040 1 180.0000771 15.1670000 2
22031 22032 22034 22035 1 180.0000771 15.1670000 2
22031 22032 22034 22036 1 180.0000771 15.1670000 2
22033 22032 22034 22035 1 180.0000771 15.1670000 2
22033 22032 22034 22036 1 180.0000771 15.1670000 2
22032 22034 22036 22037 1 180.0000771 15.1670000 2
22032 22034 22036 22038 1 180.0000771 15.1670000 2
22035 22034 22036 22037 1 180.0000771 15.1670000 2
22035 22034 22036 22038 1 180.0000771 15.1670000 2
22032 22036 22034 22035 4 180.0000771 4.6024000 2
22034 22036 22038 22039 1 180.0000771 15.1670000 2
22034 22036 22038 22040 1 180.0000771 15.1670000 2
22037 22036 22038 22039 1 180.0000771 15.1670000 2
22037 22036 22038 22040 1 180.0000771 15.1670000 2
22034 22038 22036 22037 4 180.0000771 4.6024000 2
22031 22038 22040 22041 4 180.0000771 4.6024000 2
22036 22038 22040 22041 1 180.0000771 15.1670000 2
22039 22038 22040 22041 1 180.0000771 15.1670000 2
22031 22040 22038 22036 1 180.0000771 15.1670000 2
22031 22040 22038 22039 1 180.0000771 15.1670000 2
22036 22040 22038 22039 4 180.0000771 4.6024000 2
22042 22043 22044 22045 1 180.0000771 15.1670000 2
22042 22043 22044 22046 1 180.0000771 15.1670000 2
22045 22043 22044 22046 4 180.0000771 4.6024000 2
22042 22043 22052 22044 4 180.0000771 4.6024000 2
22042 22043 22052 22050 1 180.0000771 15.1670000 2
22042 22043 22052 22053 1 180.0000771 15.1670000 2
22044 22043 22052 22050 1 180.0000771 15.1670000 2
22044 22043 22052 22053 1 180.0000771 15.1670000 2
22045 22044 22043 22052 1 180.0000771 15.1670000 2
22046 22044 22043 22052 1 180.0000771 15.1670000 2
22043 22044 22046 22047 1 180.0000771 15.1670000 2
22043 22044 22046 22048 1 180.0000771 15.1670000 2
22045 22044 22046 22047 1 180.0000771 15.1670000 2
22045 22044 22046 22048 1 180.0000771 15.1670000 2
22044 22046 22048 22049 1 180.0000771 15.1670000 2
22044 22046 22048 22050 1 180.0000771 15.1670000 2
22047 22046 22048 22049 1 180.0000771 15.1670000 2
22047 22046 22048 22050 1 180.0000771 15.1670000 2
22044 22048 22046 22047 4 180.0000771 4.6024000 2
22046 22048 22050 22051 1 180.0000771 15.1670000 2
22046 22048 22050 22052 1 180.0000771 15.1670000 2
22049 22048 22050 22051 1 180.0000771 15.1670000 2
22049 22048 22050 22052 1 180.0000771 15.1670000 2
22046 22050 22048 22049 4 180.0000771 4.6024000 2
22043 22050 22052 22053 4 180.0000771 4.6024000 2
22048 22050 22052 22053 1 180.0000771 15.1670000 2
22051 22050 22052 22053 1 180.0000771 15.1670000 2
22043 22052 22050 22048 1 180.0000771 15.1670000 2
22043 22052 22050 22051 1 180.0000771 15.1670000 2
22048 22052 22050 22051 4 180.0000771 4.6024000 2
22054 22055 22056 22057 1 180.0000771 15.1670000 2
22054 22055 22056 22058 1 180.0000771 15.1670000 2
22057 22055 22056 22058 4 180.0000771 4.6024000 2
22054 22055 22064 22056 4 180.0000771 4.6024000 2
22054 22055 22064 22062 1 180.0000771 15.1670000 2
22054 22055 22064 22065 1 180.0000771 15.1670000 2
22056 22055 22064 22062 1 180.0000771 15.1670000 2
22056 22055 22064 22065 1 180.0000771 15.1670000 2
22057 22056 22055 22064 1 180.0000771 15.1670000 2
22058 22056 22055 22064 1 180.0000771 15.1670000 2
22055 22056 22058 22059 1 180.0000771 15.1670000 2
22055 22056 22058 22060 1 180.0000771 15.1670000 2
22057 22056 22058 22059 1 180.0000771 15.1670000 2
22057 22056 22058 22060 1 180.0000771 15.1670000 2
22056 22058 22060 22061 1 180.0000771 15.1670000 2
22056 22058 22060 22062 1 180.0000771 15.1670000 2
22059 22058 22060 22061 1 180.0000771 15.1670000 2
22059 22058 22060 22062 1 180.0000771 15.1670000 2
22056 22060 22058 22059 4 180.0000771 4.6024000 2
22058 22060 22062 22063 1 180.0000771 15.1670000 2
22058 22060 22062 22064 1 180.0000771 15.1670000 2
22061 22060 22062 22063 1 180.0000771 15.1670000 2
22061 22060 22062 22064 1 180.0000771 15.1670000 2
22058 22062 22060 22061 4 180.0000771 4.6024000 2
22055 22062 22064 22065 4 180.0000771 4.6024000 2
22060 22062 22064 22065 1 180.0000771 15.1670000 2
22063 22062 22064 22065 1 180.0000771 15.1670000 2
22055 22064 22062 22060 1 180.0000771 15.1670000 2
22055 22064 22062 22063 1 180.0000771 15.1670000 2
22060 22064 22062 22063 4 180.0000771 4.6024000 2
22066 22067 22068 22069 1 180.0000771 15.1670000 2
22066 22067 22068 22070 1 180.0000771 15.1670000 2
22069 22067 22068 22070 4 180.0000771 4.6024000 2
22066 22067 22076 22068 4 180.0000771 4.6024000 2
22066 22067 22076 22074 1 180.0000771 15.1670000 2
22066 22067 22076 22077 1 180.0000771 15.1670000 2
22068 22067 22076 22074 1 180.0000771 15.1670000 2
22068 22067 22076 22077 1 180.0000771 15.1670000 2
22069 22068 22067 22076 1 180.0000771 15.1670000 2
22070 22068 22067 22076 1 180.0000771 15.1670000 2
22067 22068 22070 22071 1 180.0000771 15.1670000 2
22067 22068 22070 22072 1 180.0000771 15.1670000 2
22069 22068 22070 22071 1 180.0000771 15.1670000 2
22069 22068 22070 22072 1 180.0000771 15.1670000 2
22068 22070 22072 22073 1 180.0000771 15.1670000 2
22068 22070 22072 22074 1 180.0000771 15.1670000 2
22071 22070 22072 22073 1 180.0000771 15.1670000 2
22071 22070 22072 22074 1 180.0000771 15.1670000 2
22068 22072 22070 22071 4 180.0000771 4.6024000 2
22070 22072 22074 22075 1 180.0000771 15.1670000 2
22070 22072 22074 22076 1 180.0000771 15.1670000 2
22073 22072 22074 22075 1 180.0000771 15.1670000 2
22073 22072 22074 22076 1 180.0000771 15.1670000 2
22070 22074 22072 22073 4 180.0000771 4.6024000 2
22067 22074 22076 22077 4 180.0000771 4.6024000 2
22072 22074 22076 22077 1 180.0000771 15.1670000 2
22075 22074 22076 22077 1 180.0000771 15.1670000 2
22067 22076 22074 22072 1 180.0000771 15.1670000 2
22067 22076 22074 22075 1 180.0000771 15.1670000 2
22072 22076 22074 22075 4 180.0000771 4.6024000 2
22078 22079 22080 22081 1 180.0000771 15.1670000 2
22078 22079 22080 22082 1 180.0000771 15.1670000 2
22081 22079 22080 22082 4 180.0000771 4.6024000 2
22078 22079 22088 22080 4 180.0000771 4.6024000 2
22078 22079 22088 22086 1 180.0000771 15.1670000 2
22078 22079 22088 22089 1 180.0000771 15.1670000 2
22080 22079 22088 22086 1 180.0000771 15.1670000 2
22080 22079 22088 22089 1 180.0000771 15.1670000 2
22081 22080 22079 22088 1 180.0000771 15.1670000 2
22082 22080 22079 22088 1 180.0000771 15.1670000 2
22079 22080 22082 22083 1 180.0000771 15.1670000 2
22079 22080 22082 22084 1 180.0000771 15.1670000 2
22081 22080 22082 22083 1 180.0000771 15.1670000 2
22081 22080 22082 22084 1 180.0000771 15.1670000 2
22080 22082 22084 22085 1 180.0000771 15.1670000 2
22080 22082 22084 22086 1 180.0000771 15.1670000 2
22083 22082 22084 22085 1 180.0000771 15.1670000 2
22083 22082 22084 22086 1 180.0000771 15.1670000 2
22080 22084 22082 22083 4 180.0000771 4.6024000 2
22082 22084 22086 22087 1 180.0000771 15.1670000 2
22082 22084 22086 22088 1 180.0000771 15.1670000 2
22085 22084 22086 22087 1 180.0000771 15.1670000 2
22085 22084 22086 22088 1 180.0000771 15.1670000 2
22082 22086 22084 22085 4 180.0000771 4.6024000 2
22079 22086 22088 22089 4 180.0000771 4.6024000 2
22084 22086 22088 22089 1 180.0000771 15.1670000 2
22087 22086 22088 22089 1 180.0000771 15.1670000 2
22079 22088 22086 22084 1 180.0000771 15.1670000 2
22079 22088 22086 22087 1 180.0000771 15.1670000 2
22084 22088 22086 22087 4 180.0000771 4.6024000 2
22090 22091 22092 22093 1 180.0000771 15.1670000 2
22090 22091 22092 22094 1 180.0000771 15.1670000 2
22093 22091 22092 22094 4 180.0000771 4.6024000 2
22090 22091 22100 22092 4 180.0000771 4.6024000 2
22090 22091 22100 22098 1 180.0000771 15.1670000 2
22090 22091 22100 22101 1 180.0000771 15.1670000 2
22092 22091 22100 22098 1 180.0000771 15.1670000 2
22092 22091 22100 22101 1 180.0000771 15.1670000 2
22093 22092 22091 22100 1 180.0000771 15.1670000 2
22094 22092 22091 22100 1 180.0000771 15.1670000 2
22091 22092 22094 22095 1 180.0000771 15.1670000 2
22091 22092 22094 22096 1 180.0000771 15.1670000 2
22093 22092 22094 22095 1 180.0000771 15.1670000 2
22093 22092 22094 22096 1 180.0000771 15.1670000 2
22092 22094 22096 22097 1 180.0000771 15.1670000 2
22092 22094 22096 22098 1 180.0000771 15.1670000 2
22095 22094 22096 22097 1 180.0000771 15.1670000 2
22095 22094 22096 22098 1 180.0000771 15.1670000 2
22092 22096 22094 22095 4 180.0000771 4.6024000 2
22094 22096 22098 22099 1 180.0000771 15.1670000 2
22094 22096 22098 22100 1 180.0000771 15.1670000 2
22097 22096 22098 22099 1 180.0000771 15.1670000 2
22097 22096 22098 22100 1 180.0000771 15.1670000 2
22094 22098 22096 22097 4 180.0000771 4.6024000 2
22091 22098 22100 22101 4 180.0000771 4.6024000 2
22096 22098 22100 22101 1 180.0000771 15.1670000 2
22099 22098 22100 22101 1 180.0000771 15.1670000 2
22091 22100 22098 22096 1 180.0000771 15.1670000 2
22091 22100 22098 22099 1 180.0000771 15.1670000 2
22096 22100 22098 22099 4 180.0000771 4.6024000 2
22102 22103 22104 22105 1 180.0000771 15.1670000 2
22102 22103 22104 22106 1 180.0000771 15.1670000 2
22105 22103 22104 22106 4 180.0000771 4.6024000 2
22102 22103 22112 22104 4 180.0000771 4.6024000 2
22102 22103 22112 22110 1 180.0000771 15.1670000 2
22102 22103 22112 22113 1 180.0000771 15.1670000 2
22104 22103 22112 22110 1 180.0000771 15.1670000 2
22104 22103 22112 22113 1 180.0000771 15.1670000 2
22105 22104 22103 22112 1 180.0000771 15.1670000 2
22106 22104 22103 22112 1 180.0000771 15.1670000 2
22103 22104 22106 22107 1 180.0000771 15.1670000 2
22103 22104 22106 22108 1 180.0000771 15.1670000 2
22105 22104 22106 22107 1 180.0000771 15.1670000 2
22105 22104 22106 22108 1 180.0000771 15.1670000 2
22104 22106 22108 22109 1 180.0000771 15.1670000 2
22104 22106 22108 22110 1 180.0000771 15.1670000 2
22107 22106 22108 22109 1 180.0000771 15.1670000 2
22107 22106 22108 22110 1 180.0000771 15.1670000 2
22104 22108 22106 22107 4 180.0000771 4.6024000 2
22106 22108 22110 22111 1 180.0000771 15.1670000 2
22106 22108 22110 22112 1 180.0000771 15.1670000 2
22109 22108 22110 22111 1 180.0000771 15.1670000 2
22109 22108 22110 22112 1 180.0000771 15.1670000 2
22106 22110 22108 22109 4 180.0000771 4.6024000 2
22103 22110 22112 22113 4 180.0000771 4.6024000 2
22108 22110 22112 22113 1 180.0000771 15.1670000 2
22111 22110 22112 22113 1 180.0000771 15.1670000 2
22103 22112 22110 22108 1 180.0000771 15.1670000 2
22103 22112 22110 22111 1 180.0000771 15.1670000 2
22108 22112 22110 22111 4 180.0000771 4.6024000 2
22114 22115 22116 22117 1 180.0000771 15.1670000 2
22114 22115 22116 22118 1 180.0000771 15.1670000 2
22117 22115 22116 22118 4 180.0000771 4.6024000 2
22114 22115 22124 22116 4 180.0000771 4.6024000 2
22114 22115 22124 22122 1 180.0000771 15.1670000 2
22114 22115 22124 22125 1 180.0000771 15.1670000 2
22116 22115 22124 22122 1 180.0000771 15.1670000 2
22116 22115 22124 22125 1 180.0000771 15.1670000 2
22117 22116 22115 22124 1 180.0000771 15.1670000 2
22118 22116 22115 22124 1 180.0000771 15.1670000 2
22115 22116 22118 22119 1 180.0000771 15.1670000 2
22115 22116 22118 22120 1 180.0000771 15.1670000 2
22117 22116 22118 22119 1 180.0000771 15.1670000 2
22117 22116 22118 22120 1 180.0000771 15.1670000 2
22116 22118 22120 22121 1 180.0000771 15.1670000 2
22116 22118 22120 22122 1 180.0000771 15.1670000 2
22119 22118 22120 22121 1 180.0000771 15.1670000 2
22119 22118 22120 22122 1 180.0000771 15.1670000 2
22116 22120 22118 22119 4 180.0000771 4.6024000 2
22118 22120 22122 22123 1 180.0000771 15.1670000 2
22118 22120 22122 22124 1 180.0000771 15.1670000 2
22121 22120 22122 22123 1 180.0000771 15.1670000 2
22121 22120 22122 22124 1 180.0000771 15.1670000 2
22118 22122 22120 22121 4 180.0000771 4.6024000 2
22115 22122 22124 22125 4 180.0000771 4.6024000 2
22120 22122 22124 22125 1 180.0000771 15.1670000 2
22123 22122 22124 22125 1 180.0000771 15.1670000 2
22115 22124 22122 22120 1 180.0000771 15.1670000 2
22115 22124 22122 22123 1 180.0000771 15.1670000 2
22120 22124 22122 22123 4 180.0000771 4.6024000 2
22126 22127 22128 22129 1 180.0000771 15.1670000 2
22126 22127 22128 22130 1 180.0000771 15.1670000 2
22129 22127 22128 22130 4 180.0000771 4.6024000 2
22126 22127 22136 22128 4 180.0000771 4.6024000 2
22126 22127 22136 22134 1 180.0000771 15.1670000 2
22126 22127 22136 22137 1 180.0000771 15.1670000 2
22128 22127 22136 22134 1 180.0000771 15.1670000 2
22128 22127 22136 22137 1 180.0000771 15.1670000 2
22129 22128 22127 22136 1 180.0000771 15.1670000 2
22130 22128 22127 22136 1 180.0000771 15.1670000 2
22127 22128 22130 22131 1 180.0000771 15.1670000 2
22127 22128 22130 22132 1 180.0000771 15.1670000 2
22129 22128 22130 22131 1 180.0000771 15.1670000 2
22129 22128 22130 22132 1 180.0000771 15.1670000 2
22128 22130 22132 22133 1 180.0000771 15.1670000 2
22128 22130 22132 22134 1 180.0000771 15.1670000 2
22131 22130 22132 22133 1 180.0000771 15.1670000 2
22131 22130 22132 22134 1 180.0000771 15.1670000 2
22128 22132 22130 22131 4 180.0000771 4.6024000 2
22130 22132 22134 22135 1 180.0000771 15.1670000 2
22130 22132 22134 22136 1 180.0000771 15.1670000 2
22133 22132 22134 22135 1 180.0000771 15.1670000 2
22133 22132 22134 22136 1 180.0000771 15.1670000 2
22130 22134 22132 22133 4 180.0000771 4.6024000 2
22127 22134 22136 22137 4 180.0000771 4.6024000 2
22132 22134 22136 22137 1 180.0000771 15.1670000 2
22135 22134 22136 22137 1 180.0000771 15.1670000 2
22127 22136 22134 22132 1 180.0000771 15.1670000 2
22127 22136 22134 22135 1 180.0000771 15.1670000 2
22132 22136 22134 22135 4 180.0000771 4.6024000 2
22138 22139 22140 22141 1 180.0000771 15.1670000 2
22138 22139 22140 22142 1 180.0000771 15.1670000 2
22141 22139 22140 22142 4 180.0000771 4.6024000 2
22138 22139 22148 22140 4 180.0000771 4.6024000 2
22138 22139 22148 22146 1 180.0000771 15.1670000 2
22138 22139 22148 22149 1 180.0000771 15.1670000 2
22140 22139 22148 22146 1 180.0000771 15.1670000 2
22140 22139 22148 22149 1 180.0000771 15.1670000 2
22141 22140 22139 22148 1 180.0000771 15.1670000 2
22142 22140 22139 22148 1 180.0000771 15.1670000 2
22139 22140 22142 22143 1 180.0000771 15.1670000 2
22139 22140 22142 22144 1 180.0000771 15.1670000 2
22141 22140 22142 22143 1 180.0000771 15.1670000 2
22141 22140 22142 22144 1 180.0000771 15.1670000 2
22140 22142 22144 22145 1 180.0000771 15.1670000 2
22140 22142 22144 22146 1 180.0000771 15.1670000 2
22143 22142 22144 22145 1 180.0000771 15.1670000 2
22143 22142 22144 22146 1 180.0000771 15.1670000 2
22140 22144 22142 22143 4 180.0000771 4.6024000 2
22142 22144 22146 22147 1 180.0000771 15.1670000 2
22142 22144 22146 22148 1 180.0000771 15.1670000 2
22145 22144 22146 22147 1 180.0000771 15.1670000 2
22145 22144 22146 22148 1 180.0000771 15.1670000 2
22142 22146 22144 22145 4 180.0000771 4.6024000 2
22139 22146 22148 22149 4 180.0000771 4.6024000 2
22144 22146 22148 22149 1 180.0000771 15.1670000 2
22147 22146 22148 22149 1 180.0000771 15.1670000 2
22139 22148 22146 22144 1 180.0000771 15.1670000 2
22139 22148 22146 22147 1 180.0000771 15.1670000 2
22144 22148 22146 22147 4 180.0000771 4.6024000 2
22150 22151 22152 22153 1 180.0000771 15.1670000 2
22150 22151 22152 22154 1 180.0000771 15.1670000 2
22153 22151 22152 22154 4 180.0000771 4.6024000 2
22150 22151 22160 22152 4 180.0000771 4.6024000 2
22150 22151 22160 22158 1 180.0000771 15.1670000 2
22150 22151 22160 22161 1 180.0000771 15.1670000 2
22152 22151 22160 22158 1 180.0000771 15.1670000 2
22152 22151 22160 22161 1 180.0000771 15.1670000 2
22153 22152 22151 22160 1 180.0000771 15.1670000 2
22154 22152 22151 22160 1 180.0000771 15.1670000 2
22151 22152 22154 22155 1 180.0000771 15.1670000 2
22151 22152 22154 22156 1 180.0000771 15.1670000 2
22153 22152 22154 22155 1 180.0000771 15.1670000 2
22153 22152 22154 22156 1 180.0000771 15.1670000 2
22152 22154 22156 22157 1 180.0000771 15.1670000 2
22152 22154 22156 22158 1 180.0000771 15.1670000 2
22155 22154 22156 22157 1 180.0000771 15.1670000 2
22155 22154 22156 22158 1 180.0000771 15.1670000 2
22152 22156 22154 22155 4 180.0000771 4.6024000 2
22154 22156 22158 22159 1 180.0000771 15.1670000 2
22154 22156 22158 22160 1 180.0000771 15.1670000 2
22157 22156 22158 22159 1 180.0000771 15.1670000 2
22157 22156 22158 22160 1 180.0000771 15.1670000 2
22154 22158 22156 22157 4 180.0000771 4.6024000 2
22151 22158 22160 22161 4 180.0000771 4.6024000 2
22156 22158 22160 22161 1 180.0000771 15.1670000 2
22159 22158 22160 22161 1 180.0000771 15.1670000 2
22151 22160 22158 22156 1 180.0000771 15.1670000 2
22151 22160 22158 22159 1 180.0000771 15.1670000 2
22156 22160 22158 22159 4 180.0000771 4.6024000 2
22162 22163 22164 22165 1 180.0000771 15.1670000 2
22162 22163 22164 22166 1 180.0000771 15.1670000 2
22165 22163 22164 22166 4 180.0000771 4.6024000 2
22162 22163 22172 22164 4 180.0000771 4.6024000 2
22162 22163 22172 22170 1 180.0000771 15.1670000 2
22162 22163 22172 22173 1 180.0000771 15.1670000 2
22164 22163 22172 22170 1 180.0000771 15.1670000 2
22164 22163 22172 22173 1 180.0000771 15.1670000 2
22165 22164 22163 22172 1 180.0000771 15.1670000 2
22166 22164 22163 22172 1 180.0000771 15.1670000 2
22163 22164 22166 22167 1 180.0000771 15.1670000 2
22163 22164 22166 22168 1 180.0000771 15.1670000 2
22165 22164 22166 22167 1 180.0000771 15.1670000 2
22165 22164 22166 22168 1 180.0000771 15.1670000 2
22164 22166 22168 22169 1 180.0000771 15.1670000 2
22164 22166 22168 22170 1 180.0000771 15.1670000 2
22167 22166 22168 22169 1 180.0000771 15.1670000 2
22167 22166 22168 22170 1 180.0000771 15.1670000 2
22164 22168 22166 22167 4 180.0000771 4.6024000 2
22166 22168 22170 22171 1 180.0000771 15.1670000 2
22166 22168 22170 22172 1 180.0000771 15.1670000 2
22169 22168 22170 22171 1 180.0000771 15.1670000 2
22169 22168 22170 22172 1 180.0000771 15.1670000 2
22166 22170 22168 22169 4 180.0000771 4.6024000 2
22163 22170 22172 22173 4 180.0000771 4.6024000 2
22168 22170 22172 22173 1 180.0000771 15.1670000 2
22171 22170 22172 22173 1 180.0000771 15.1670000 2
22163 22172 22170 22168 1 180.0000771 15.1670000 2
22163 22172 22170 22171 1 180.0000771 15.1670000 2
22168 22172 22170 22171 4 180.0000771 4.6024000 2
22174 22175 22176 22177 1 180.0000771 15.1670000 2
22174 22175 22176 22178 1 180.0000771 15.1670000 2
22177 22175 22176 22178 4 180.0000771 4.6024000 2
22174 22175 22184 22176 4 180.0000771 4.6024000 2
22174 22175 22184 22182 1 180.0000771 15.1670000 2
22174 22175 22184 22185 1 180.0000771 15.1670000 2
22176 22175 22184 22182 1 180.0000771 15.1670000 2
22176 22175 22184 22185 1 180.0000771 15.1670000 2
22177 22176 22175 22184 1 180.0000771 15.1670000 2
22178 22176 22175 22184 1 180.0000771 15.1670000 2
22175 22176 22178 22179 1 180.0000771 15.1670000 2
22175 22176 22178 22180 1 180.0000771 15.1670000 2
22177 22176 22178 22179 1 180.0000771 15.1670000 2
22177 22176 22178 22180 1 180.0000771 15.1670000 2
22176 22178 22180 22181 1 180.0000771 15.1670000 2
22176 22178 22180 22182 1 180.0000771 15.1670000 2
22179 22178 22180 22181 1 180.0000771 15.1670000 2
22179 22178 22180 22182 1 180.0000771 15.1670000 2
22176 22180 22178 22179 4 180.0000771 4.6024000 2
22178 22180 22182 22183 1 180.0000771 15.1670000 2
22178 22180 22182 22184 1 180.0000771 15.1670000 2
22181 22180 22182 22183 1 180.0000771 15.1670000 2
22181 22180 22182 22184 1 180.0000771 15.1670000 2
22178 22182 22180 22181 4 180.0000771 4.6024000 2
22175 22182 22184 22185 4 180.0000771 4.6024000 2
22180 22182 22184 22185 1 180.0000771 15.1670000 2
22183 22182 22184 22185 1 180.0000771 15.1670000 2
22175 22184 22182 22180 1 180.0000771 15.1670000 2
22175 22184 22182 22183 1 180.0000771 15.1670000 2
22180 22184 22182 22183 4 180.0000771 4.6024000 2
22186 22187 22188 22189 1 180.0000771 15.1670000 2
22186 22187 22188 22190 1 180.0000771 15.1670000 2
22189 22187 22188 22190 4 180.0000771 4.6024000 2
22186 22187 22196 22188 4 180.0000771 4.6024000 2
22186 22187 22196 22194 1 180.0000771 15.1670000 2
22186 22187 22196 22197 1 180.0000771 15.1670000 2
22188 22187 22196 22194 1 180.0000771 15.1670000 2
22188 22187 22196 22197 1 180.0000771 15.1670000 2
22189 22188 22187 22196 1 180.0000771 15.1670000 2
22190 22188 22187 22196 1 180.0000771 15.1670000 2
22187 22188 22190 22191 1 180.0000771 15.1670000 2
22187 22188 22190 22192 1 180.0000771 15.1670000 2
22189 22188 22190 22191 1 180.0000771 15.1670000 2
22189 22188 22190 22192 1 180.0000771 15.1670000 2
22188 22190 22192 22193 1 180.0000771 15.1670000 2
22188 22190 22192 22194 1 180.0000771 15.1670000 2
22191 22190 22192 22193 1 180.0000771 15.1670000 2
22191 22190 22192 22194 1 180.0000771 15.1670000 2
22188 22192 22190 22191 4 180.0000771 4.6024000 2
22190 22192 22194 22195 1 180.0000771 15.1670000 2
22190 22192 22194 22196 1 180.0000771 15.1670000 2
22193 22192 22194 22195 1 180.0000771 15.1670000 2
22193 22192 22194 22196 1 180.0000771 15.1670000 2
22190 22194 22192 22193 4 180.0000771 4.6024000 2
22187 22194 22196 22197 4 180.0000771 4.6024000 2
22192 22194 22196 22197 1 180.0000771 15.1670000 2
22195 22194 22196 22197 1 180.0000771 15.1670000 2
22187 22196 22194 22192 1 180.0000771 15.1670000 2
22187 22196 22194 22195 1 180.0000771 15.1670000 2
22192 22196 22194 22195 4 180.0000771 4.6024000 2
22198 22199 22200 22201 1 180.0000771 15.1670000 2
22198 22199 22200 22202 1 180.0000771 15.1670000 2
22201 22199 22200 22202 4 180.0000771 4.6024000 2
22198 22199 22208 22200 4 180.0000771 4.6024000 2
22198 22199 22208 22206 1 180.0000771 15.1670000 2
22198 22199 22208 22209 1 180.0000771 15.1670000 2
22200 22199 22208 22206 1 180.0000771 15.1670000 2
22200 22199 22208 22209 1 180.0000771 15.1670000 2
22201 22200 22199 22208 1 180.0000771 15.1670000 2
22202 22200 22199 22208 1 180.0000771 15.1670000 2
22199 22200 22202 22203 1 180.0000771 15.1670000 2
22199 22200 22202 22204 1 180.0000771 15.1670000 2
22201 22200 22202 22203 1 180.0000771 15.1670000 2
22201 22200 22202 22204 1 180.0000771 15.1670000 2
22200 22202 22204 22205 1 180.0000771 15.1670000 2
22200 22202 22204 22206 1 180.0000771 15.1670000 2
22203 22202 22204 22205 1 180.0000771 15.1670000 2
22203 22202 22204 22206 1 180.0000771 15.1670000 2
22200 22204 22202 22203 4 180.0000771 4.6024000 2
22202 22204 22206 22207 1 180.0000771 15.1670000 2
22202 22204 22206 22208 1 180.0000771 15.1670000 2
22205 22204 22206 22207 1 180.0000771 15.1670000 2
22205 22204 22206 22208 1 180.0000771 15.1670000 2
22202 22206 22204 22205 4 180.0000771 4.6024000 2
22199 22206 22208 22209 4 180.0000771 4.6024000 2
22204 22206 22208 22209 1 180.0000771 15.1670000 2
22207 22206 22208 22209 1 180.0000771 15.1670000 2
22199 22208 22206 22204 1 180.0000771 15.1670000 2
22199 22208 22206 22207 1 180.0000771 15.1670000 2
22204 22208 22206 22207 4 180.0000771 4.6024000 2
22210 22211 22212 22213 1 180.0000771 15.1670000 2
22210 22211 22212 22214 1 180.0000771 15.1670000 2
22213 22211 22212 22214 4 180.0000771 4.6024000 2
22210 22211 22220 22212 4 180.0000771 4.6024000 2
22210 22211 22220 22218 1 180.0000771 15.1670000 2
22210 22211 22220 22221 1 180.0000771 15.1670000 2
22212 22211 22220 22218 1 180.0000771 15.1670000 2
22212 22211 22220 22221 1 180.0000771 15.1670000 2
22213 22212 22211 22220 1 180.0000771 15.1670000 2
22214 22212 22211 22220 1 180.0000771 15.1670000 2
22211 22212 22214 22215 1 180.0000771 15.1670000 2
22211 22212 22214 22216 1 180.0000771 15.1670000 2
22213 22212 22214 22215 1 180.0000771 15.1670000 2
22213 22212 22214 22216 1 180.0000771 15.1670000 2
22212 22214 22216 22217 1 180.0000771 15.1670000 2
22212 22214 22216 22218 1 180.0000771 15.1670000 2
22215 22214 22216 22217 1 180.0000771 15.1670000 2
22215 22214 22216 22218 1 180.0000771 15.1670000 2
22212 22216 22214 22215 4 180.0000771 4.6024000 2
22214 22216 22218 22219 1 180.0000771 15.1670000 2
22214 22216 22218 22220 1 180.0000771 15.1670000 2
22217 22216 22218 22219 1 180.0000771 15.1670000 2
22217 22216 22218 22220 1 180.0000771 15.1670000 2
22214 22218 22216 22217 4 180.0000771 4.6024000 2
22211 22218 22220 22221 4 180.0000771 4.6024000 2
22216 22218 22220 22221 1 180.0000771 15.1670000 2
22219 22218 22220 22221 1 180.0000771 15.1670000 2
22211 22220 22218 22216 1 180.0000771 15.1670000 2
22211 22220 22218 22219 1 180.0000771 15.1670000 2
22216 22220 22218 22219 4 180.0000771 4.6024000 2
22222 22223 22224 22225 1 180.0000771 15.1670000 2
22222 22223 22224 22226 1 180.0000771 15.1670000 2
22225 22223 22224 22226 4 180.0000771 4.6024000 2
22222 22223 22232 22224 4 180.0000771 4.6024000 2
22222 22223 22232 22230 1 180.0000771 15.1670000 2
22222 22223 22232 22233 1 180.0000771 15.1670000 2
22224 22223 22232 22230 1 180.0000771 15.1670000 2
22224 22223 22232 22233 1 180.0000771 15.1670000 2
22225 22224 22223 22232 1 180.0000771 15.1670000 2
22226 22224 22223 22232 1 180.0000771 15.1670000 2
22223 22224 22226 22227 1 180.0000771 15.1670000 2
22223 22224 22226 22228 1 180.0000771 15.1670000 2
22225 22224 22226 22227 1 180.0000771 15.1670000 2
22225 22224 22226 22228 1 180.0000771 15.1670000 2
22224 22226 22228 22229 1 180.0000771 15.1670000 2
22224 22226 22228 22230 1 180.0000771 15.1670000 2
22227 22226 22228 22229 1 180.0000771 15.1670000 2
22227 22226 22228 22230 1 180.0000771 15.1670000 2
22224 22228 22226 22227 4 180.0000771 4.6024000 2
22226 22228 22230 22231 1 180.0000771 15.1670000 2
22226 22228 22230 22232 1 180.0000771 15.1670000 2
22229 22228 22230 22231 1 180.0000771 15.1670000 2
22229 22228 22230 22232 1 180.0000771 15.1670000 2
22226 22230 22228 22229 4 180.0000771 4.6024000 2
22223 22230 22232 22233 4 180.0000771 4.6024000 2
22228 22230 22232 22233 1 180.0000771 15.1670000 2
22231 22230 22232 22233 1 180.0000771 15.1670000 2
22223 22232 22230 22228 1 180.0000771 15.1670000 2
22223 22232 22230 22231 1 180.0000771 15.1670000 2
22228 22232 22230 22231 4 180.0000771 4.6024000 2
22234 22235 22236 22237 1 180.0000771 15.1670000 2
22234 22235 22236 22238 1 180.0000771 15.1670000 2
22237 22235 22236 22238 4 180.0000771 4.6024000 2
22234 22235 22244 22236 4 180.0000771 4.6024000 2
22234 22235 22244 22242 1 180.0000771 15.1670000 2
22234 22235 22244 22245 1 180.0000771 15.1670000 2
22236 22235 22244 22242 1 180.0000771 15.1670000 2
22236 22235 22244 22245 1 180.0000771 15.1670000 2
22237 22236 22235 22244 1 180.0000771 15.1670000 2
22238 22236 22235 22244 1 180.0000771 15.1670000 2
22235 22236 22238 22239 1 180.0000771 15.1670000 2
22235 22236 22238 22240 1 180.0000771 15.1670000 2
22237 22236 22238 22239 1 180.0000771 15.1670000 2
22237 22236 22238 22240 1 180.0000771 15.1670000 2
22236 22238 22240 22241 1 180.0000771 15.1670000 2
22236 22238 22240 22242 1 180.0000771 15.1670000 2
22239 22238 22240 22241 1 180.0000771 15.1670000 2
22239 22238 22240 22242 1 180.0000771 15.1670000 2
22236 22240 22238 22239 4 180.0000771 4.6024000 2
22238 22240 22242 22243 1 180.0000771 15.1670000 2
22238 22240 22242 22244 1 180.0000771 15.1670000 2
22241 22240 22242 22243 1 180.0000771 15.1670000 2
22241 22240 22242 22244 1 180.0000771 15.1670000 2
22238 22242 22240 22241 4 180.0000771 4.6024000 2
22235 22242 22244 22245 4 180.0000771 4.6024000 2
22240 22242 22244 22245 1 180.0000771 15.1670000 2
22243 22242 22244 22245 1 180.0000771 15.1670000 2
22235 22244 22242 22240 1 180.0000771 15.1670000 2
22235 22244 22242 22243 1 180.0000771 15.1670000 2
22240 22244 22242 22243 4 180.0000771 4.6024000 2
22246 22247 22248 22249 1 180.0000771 15.1670000 2
22246 22247 22248 22250 1 180.0000771 15.1670000 2
22249 22247 22248 22250 4 180.0000771 4.6024000 2
22246 22247 22256 22248 4 180.0000771 4.6024000 2
22246 22247 22256 22254 1 180.0000771 15.1670000 2
22246 22247 22256 22257 1 180.0000771 15.1670000 2
22248 22247 22256 22254 1 180.0000771 15.1670000 2
22248 22247 22256 22257 1 180.0000771 15.1670000 2
22249 22248 22247 22256 1 180.0000771 15.1670000 2
22250 22248 22247 22256 1 180.0000771 15.1670000 2
22247 22248 22250 22251 1 180.0000771 15.1670000 2
22247 22248 22250 22252 1 180.0000771 15.1670000 2
22249 22248 22250 22251 1 180.0000771 15.1670000 2
22249 22248 22250 22252 1 180.0000771 15.1670000 2
22248 22250 22252 22253 1 180.0000771 15.1670000 2
22248 22250 22252 22254 1 180.0000771 15.1670000 2
22251 22250 22252 22253 1 180.0000771 15.1670000 2
22251 22250 22252 22254 1 180.0000771 15.1670000 2
22248 22252 22250 22251 4 180.0000771 4.6024000 2
22250 22252 22254 22255 1 180.0000771 15.1670000 2
22250 22252 22254 22256 1 180.0000771 15.1670000 2
22253 22252 22254 22255 1 180.0000771 15.1670000 2
22253 22252 22254 22256 1 180.0000771 15.1670000 2
22250 22254 22252 22253 4 180.0000771 4.6024000 2
22247 22254 22256 22257 4 180.0000771 4.6024000 2
22252 22254 22256 22257 1 180.0000771 15.1670000 2
22255 22254 22256 22257 1 180.0000771 15.1670000 2
22247 22256 22254 22252 1 180.0000771 15.1670000 2
22247 22256 22254 22255 1 180.0000771 15.1670000 2
22252 22256 22254 22255 4 180.0000771 4.6024000 2
22258 22259 22260 22261 1 180.0000771 15.1670000 2
22258 22259 22260 22262 1 180.0000771 15.1670000 2
22261 22259 22260 22262 4 180.0000771 4.6024000 2
22258 22259 22268 22260 4 180.0000771 4.6024000 2
22258 22259 22268 22266 1 180.0000771 15.1670000 2
22258 22259 22268 22269 1 180.0000771 15.1670000 2
22260 22259 22268 22266 1 180.0000771 15.1670000 2
22260 22259 22268 22269 1 180.0000771 15.1670000 2
22261 22260 22259 22268 1 180.0000771 15.1670000 2
22262 22260 22259 22268 1 180.0000771 15.1670000 2
22259 22260 22262 22263 1 180.0000771 15.1670000 2
22259 22260 22262 22264 1 180.0000771 15.1670000 2
22261 22260 22262 22263 1 180.0000771 15.1670000 2
22261 22260 22262 22264 1 180.0000771 15.1670000 2
22260 22262 22264 22265 1 180.0000771 15.1670000 2
22260 22262 22264 22266 1 180.0000771 15.1670000 2
22263 22262 22264 22265 1 180.0000771 15.1670000 2
22263 22262 22264 22266 1 180.0000771 15.1670000 2
22260 22264 22262 22263 4 180.0000771 4.6024000 2
22262 22264 22266 22267 1 180.0000771 15.1670000 2
22262 22264 22266 22268 1 180.0000771 15.1670000 2
22265 22264 22266 22267 1 180.0000771 15.1670000 2
22265 22264 22266 22268 1 180.0000771 15.1670000 2
22262 22266 22264 22265 4 180.0000771 4.6024000 2
22259 22266 22268 22269 4 180.0000771 4.6024000 2
22264 22266 22268 22269 1 180.0000771 15.1670000 2
22267 22266 22268 22269 1 180.0000771 15.1670000 2
22259 22268 22266 22264 1 180.0000771 15.1670000 2
22259 22268 22266 22267 1 180.0000771 15.1670000 2
22264 22268 22266 22267 4 180.0000771 4.6024000 2
22270 22271 22272 22273 1 180.0000771 15.1670000 2
22270 22271 22272 22274 1 180.0000771 15.1670000 2
22273 22271 22272 22274 4 180.0000771 4.6024000 2
22270 22271 22280 22272 4 180.0000771 4.6024000 2
22270 22271 22280 22278 1 180.0000771 15.1670000 2
22270 22271 22280 22281 1 180.0000771 15.1670000 2
22272 22271 22280 22278 1 180.0000771 15.1670000 2
22272 22271 22280 22281 1 180.0000771 15.1670000 2
22273 22272 22271 22280 1 180.0000771 15.1670000 2
22274 22272 22271 22280 1 180.0000771 15.1670000 2
22271 22272 22274 22275 1 180.0000771 15.1670000 2
22271 22272 22274 22276 1 180.0000771 15.1670000 2
22273 22272 22274 22275 1 180.0000771 15.1670000 2
22273 22272 22274 22276 1 180.0000771 15.1670000 2
22272 22274 22276 22277 1 180.0000771 15.1670000 2
22272 22274 22276 22278 1 180.0000771 15.1670000 2
22275 22274 22276 22277 1 180.0000771 15.1670000 2
22275 22274 22276 22278 1 180.0000771 15.1670000 2
22272 22276 22274 22275 4 180.0000771 4.6024000 2
22274 22276 22278 22279 1 180.0000771 15.1670000 2
22274 22276 22278 22280 1 180.0000771 15.1670000 2
22277 22276 22278 22279 1 180.0000771 15.1670000 2
22277 22276 22278 22280 1 180.0000771 15.1670000 2
22274 22278 22276 22277 4 180.0000771 4.6024000 2
22271 22278 22280 22281 4 180.0000771 4.6024000 2
22276 22278 22280 22281 1 180.0000771 15.1670000 2
22279 22278 22280 22281 1 180.0000771 15.1670000 2
22271 22280 22278 22276 1 180.0000771 15.1670000 2
22271 22280 22278 22279 1 180.0000771 15.1670000 2
22276 22280 22278 22279 4 180.0000771 4.6024000 2
22282 22283 22284 22285 1 180.0000771 15.1670000 2
22282 22283 22284 22286 1 180.0000771 15.1670000 2
22285 22283 22284 22286 4 180.0000771 4.6024000 2
22282 22283 22292 22284 4 180.0000771 4.6024000 2
22282 22283 22292 22290 1 180.0000771 15.1670000 2
22282 22283 22292 22293 1 180.0000771 15.1670000 2
22284 22283 22292 22290 1 180.0000771 15.1670000 2
22284 22283 22292 22293 1 180.0000771 15.1670000 2
22285 22284 22283 22292 1 180.0000771 15.1670000 2
22286 22284 22283 22292 1 180.0000771 15.1670000 2
22283 22284 22286 22287 1 180.0000771 15.1670000 2
22283 22284 22286 22288 1 180.0000771 15.1670000 2
22285 22284 22286 22287 1 180.0000771 15.1670000 2
22285 22284 22286 22288 1 180.0000771 15.1670000 2
22284 22286 22288 22289 1 180.0000771 15.1670000 2
22284 22286 22288 22290 1 180.0000771 15.1670000 2
22287 22286 22288 22289 1 180.0000771 15.1670000 2
22287 22286 22288 22290 1 180.0000771 15.1670000 2
22284 22288 22286 22287 4 180.0000771 4.6024000 2
22286 22288 22290 22291 1 180.0000771 15.1670000 2
22286 22288 22290 22292 1 180.0000771 15.1670000 2
22289 22288 22290 22291 1 180.0000771 15.1670000 2
22289 22288 22290 22292 1 180.0000771 15.1670000 2
22286 22290 22288 22289 4 180.0000771 4.6024000 2
22283 22290 22292 22293 4 180.0000771 4.6024000 2
22288 22290 22292 22293 1 180.0000771 15.1670000 2
22291 22290 22292 22293 1 180.0000771 15.1670000 2
22283 22292 22290 22288 1 180.0000771 15.1670000 2
22283 22292 22290 22291 1 180.0000771 15.1670000 2
22288 22292 22290 22291 4 180.0000771 4.6024000 2
22294 22295 22296 22297 1 180.0000771 15.1670000 2
22294 22295 22296 22298 1 180.0000771 15.1670000 2
22297 22295 22296 22298 4 180.0000771 4.6024000 2
22294 22295 22304 22296 4 180.0000771 4.6024000 2
22294 22295 22304 22302 1 180.0000771 15.1670000 2
22294 22295 22304 22305 1 180.0000771 15.1670000 2
22296 22295 22304 22302 1 180.0000771 15.1670000 2
22296 22295 22304 22305 1 180.0000771 15.1670000 2
22297 22296 22295 22304 1 180.0000771 15.1670000 2
22298 22296 22295 22304 1 180.0000771 15.1670000 2
22295 22296 22298 22299 1 180.0000771 15.1670000 2
22295 22296 22298 22300 1 180.0000771 15.1670000 2
22297 22296 22298 22299 1 180.0000771 15.1670000 2
22297 22296 22298 22300 1 180.0000771 15.1670000 2
22296 22298 22300 22301 1 180.0000771 15.1670000 2
22296 22298 22300 22302 1 180.0000771 15.1670000 2
22299 22298 22300 22301 1 180.0000771 15.1670000 2
22299 22298 22300 22302 1 180.0000771 15.1670000 2
22296 22300 22298 22299 4 180.0000771 4.6024000 2
22298 22300 22302 22303 1 180.0000771 15.1670000 2
22298 22300 22302 22304 1 180.0000771 15.1670000 2
22301 22300 22302 22303 1 180.0000771 15.1670000 2
22301 22300 22302 22304 1 180.0000771 15.1670000 2
22298 22302 22300 22301 4 180.0000771 4.6024000 2
22295 22302 22304 22305 4 180.0000771 4.6024000 2
22300 22302 22304 22305 1 180.0000771 15.1670000 2
22303 22302 22304 22305 1 180.0000771 15.1670000 2
22295 22304 22302 22300 1 180.0000771 15.1670000 2
22295 22304 22302 22303 1 180.0000771 15.1670000 2
22300 22304 22302 22303 4 180.0000771 4.6024000 2
22306 22307 22308 22309 1 180.0000771 15.1670000 2
22306 22307 22308 22310 1 180.0000771 15.1670000 2
22309 22307 22308 22310 4 180.0000771 4.6024000 2
22306 22307 22316 22308 4 180.0000771 4.6024000 2
22306 22307 22316 22314 1 180.0000771 15.1670000 2
22306 22307 22316 22317 1 180.0000771 15.1670000 2
22308 22307 22316 22314 1 180.0000771 15.1670000 2
22308 22307 22316 22317 1 180.0000771 15.1670000 2
22309 22308 22307 22316 1 180.0000771 15.1670000 2
22310 22308 22307 22316 1 180.0000771 15.1670000 2
22307 22308 22310 22311 1 180.0000771 15.1670000 2
22307 22308 22310 22312 1 180.0000771 15.1670000 2
22309 22308 22310 22311 1 180.0000771 15.1670000 2
22309 22308 22310 22312 1 180.0000771 15.1670000 2
22308 22310 22312 22313 1 180.0000771 15.1670000 2
22308 22310 22312 22314 1 180.0000771 15.1670000 2
22311 22310 22312 22313 1 180.0000771 15.1670000 2
22311 22310 22312 22314 1 180.0000771 15.1670000 2
22308 22312 22310 22311 4 180.0000771 4.6024000 2
22310 22312 22314 22315 1 180.0000771 15.1670000 2
22310 22312 22314 22316 1 180.0000771 15.1670000 2
22313 22312 22314 22315 1 180.0000771 15.1670000 2
22313 22312 22314 22316 1 180.0000771 15.1670000 2
22310 22314 22312 22313 4 180.0000771 4.6024000 2
22307 22314 22316 22317 4 180.0000771 4.6024000 2
22312 22314 22316 22317 1 180.0000771 15.1670000 2
22315 22314 22316 22317 1 180.0000771 15.1670000 2
22307 22316 22314 22312 1 180.0000771 15.1670000 2
22307 22316 22314 22315 1 180.0000771 15.1670000 2
22312 22316 22314 22315 4 180.0000771 4.6024000 2
22318 22319 22320 22321 1 180.0000771 15.1670000 2
22318 22319 22320 22322 1 180.0000771 15.1670000 2
22321 22319 22320 22322 4 180.0000771 4.6024000 2
22318 22319 22328 22320 4 180.0000771 4.6024000 2
22318 22319 22328 22326 1 180.0000771 15.1670000 2
22318 22319 22328 22329 1 180.0000771 15.1670000 2
22320 22319 22328 22326 1 180.0000771 15.1670000 2
22320 22319 22328 22329 1 180.0000771 15.1670000 2
22321 22320 22319 22328 1 180.0000771 15.1670000 2
22322 22320 22319 22328 1 180.0000771 15.1670000 2
22319 22320 22322 22323 1 180.0000771 15.1670000 2
22319 22320 22322 22324 1 180.0000771 15.1670000 2
22321 22320 22322 22323 1 180.0000771 15.1670000 2
22321 22320 22322 22324 1 180.0000771 15.1670000 2
22320 22322 22324 22325 1 180.0000771 15.1670000 2
22320 22322 22324 22326 1 180.0000771 15.1670000 2
22323 22322 22324 22325 1 180.0000771 15.1670000 2
22323 22322 22324 22326 1 180.0000771 15.1670000 2
22320 22324 22322 22323 4 180.0000771 4.6024000 2
22322 22324 22326 22327 1 180.0000771 15.1670000 2
22322 22324 22326 22328 1 180.0000771 15.1670000 2
22325 22324 22326 22327 1 180.0000771 15.1670000 2
22325 22324 22326 22328 1 180.0000771 15.1670000 2
22322 22326 22324 22325 4 180.0000771 4.6024000 2
22319 22326 22328 22329 4 180.0000771 4.6024000 2
22324 22326 22328 22329 1 180.0000771 15.1670000 2
22327 22326 22328 22329 1 180.0000771 15.1670000 2
22319 22328 22326 22324 1 180.0000771 15.1670000 2
22319 22328 22326 22327 1 180.0000771 15.1670000 2
22324 22328 22326 22327 4 180.0000771 4.6024000 2
22330 22331 22332 22333 1 180.0000771 15.1670000 2
22330 22331 22332 22334 1 180.0000771 15.1670000 2
22333 22331 22332 22334 4 180.0000771 4.6024000 2
22330 22331 22340 22332 4 180.0000771 4.6024000 2
22330 22331 22340 22338 1 180.0000771 15.1670000 2
22330 22331 22340 22341 1 180.0000771 15.1670000 2
22332 22331 22340 22338 1 180.0000771 15.1670000 2
22332 22331 22340 22341 1 180.0000771 15.1670000 2
22333 22332 22331 22340 1 180.0000771 15.1670000 2
22334 22332 22331 22340 1 180.0000771 15.1670000 2
22331 22332 22334 22335 1 180.0000771 15.1670000 2
22331 22332 22334 22336 1 180.0000771 15.1670000 2
22333 22332 22334 22335 1 180.0000771 15.1670000 2
22333 22332 22334 22336 1 180.0000771 15.1670000 2
22332 22334 22336 22337 1 180.0000771 15.1670000 2
22332 22334 22336 22338 1 180.0000771 15.1670000 2
22335 22334 22336 22337 1 180.0000771 15.1670000 2
22335 22334 22336 22338 1 180.0000771 15.1670000 2
22332 22336 22334 22335 4 180.0000771 4.6024000 2
22334 22336 22338 22339 1 180.0000771 15.1670000 2
22334 22336 22338 22340 1 180.0000771 15.1670000 2
22337 22336 22338 22339 1 180.0000771 15.1670000 2
22337 22336 22338 22340 1 180.0000771 15.1670000 2
22334 22338 22336 22337 4 180.0000771 4.6024000 2
22331 22338 22340 22341 4 180.0000771 4.6024000 2
22336 22338 22340 22341 1 180.0000771 15.1670000 2
22339 22338 22340 22341 1 180.0000771 15.1670000 2
22331 22340 22338 22336 1 180.0000771 15.1670000 2
22331 22340 22338 22339 1 180.0000771 15.1670000 2
22336 22340 22338 22339 4 180.0000771 4.6024000 2
22342 22343 22344 22345 1 180.0000771 15.1670000 2
22342 22343 22344 22346 1 180.0000771 15.1670000 2
22345 22343 22344 22346 4 180.0000771 4.6024000 2
22342 22343 22352 22344 4 180.0000771 4.6024000 2
22342 22343 22352 22350 1 180.0000771 15.1670000 2
22342 22343 22352 22353 1 180.0000771 15.1670000 2
22344 22343 22352 22350 1 180.0000771 15.1670000 2
22344 22343 22352 22353 1 180.0000771 15.1670000 2
22345 22344 22343 22352 1 180.0000771 15.1670000 2
22346 22344 22343 22352 1 180.0000771 15.1670000 2
22343 22344 22346 22347 1 180.0000771 15.1670000 2
22343 22344 22346 22348 1 180.0000771 15.1670000 2
22345 22344 22346 22347 1 180.0000771 15.1670000 2
22345 22344 22346 22348 1 180.0000771 15.1670000 2
22344 22346 22348 22349 1 180.0000771 15.1670000 2
22344 22346 22348 22350 1 180.0000771 15.1670000 2
22347 22346 22348 22349 1 180.0000771 15.1670000 2
22347 22346 22348 22350 1 180.0000771 15.1670000 2
22344 22348 22346 22347 4 180.0000771 4.6024000 2
22346 22348 22350 22351 1 180.0000771 15.1670000 2
22346 22348 22350 22352 1 180.0000771 15.1670000 2
22349 22348 22350 22351 1 180.0000771 15.1670000 2
22349 22348 22350 22352 1 180.0000771 15.1670000 2
22346 22350 22348 22349 4 180.0000771 4.6024000 2
22343 22350 22352 22353 4 180.0000771 4.6024000 2
22348 22350 22352 22353 1 180.0000771 15.1670000 2
22351 22350 22352 22353 1 180.0000771 15.1670000 2
22343 22352 22350 22348 1 180.0000771 15.1670000 2
22343 22352 22350 22351 1 180.0000771 15.1670000 2
22348 22352 22350 22351 4 180.0000771 4.6024000 2
22354 22355 22356 22357 1 180.0000771 15.1670000 2
22354 22355 22356 22358 1 180.0000771 15.1670000 2
22357 22355 22356 22358 4 180.0000771 4.6024000 2
22354 22355 22364 22356 4 180.0000771 4.6024000 2
22354 22355 22364 22362 1 180.0000771 15.1670000 2
22354 22355 22364 22365 1 180.0000771 15.1670000 2
22356 22355 22364 22362 1 180.0000771 15.1670000 2
22356 22355 22364 22365 1 180.0000771 15.1670000 2
22357 22356 22355 22364 1 180.0000771 15.1670000 2
22358 22356 22355 22364 1 180.0000771 15.1670000 2
22355 22356 22358 22359 1 180.0000771 15.1670000 2
22355 22356 22358 22360 1 180.0000771 15.1670000 2
22357 22356 22358 22359 1 180.0000771 15.1670000 2
22357 22356 22358 22360 1 180.0000771 15.1670000 2
22356 22358 22360 22361 1 180.0000771 15.1670000 2
22356 22358 22360 22362 1 180.0000771 15.1670000 2
22359 22358 22360 22361 1 180.0000771 15.1670000 2
22359 22358 22360 22362 1 180.0000771 15.1670000 2
22356 22360 22358 22359 4 180.0000771 4.6024000 2
22358 22360 22362 22363 1 180.0000771 15.1670000 2
22358 22360 22362 22364 1 180.0000771 15.1670000 2
22361 22360 22362 22363 1 180.0000771 15.1670000 2
22361 22360 22362 22364 1 180.0000771 15.1670000 2
22358 22362 22360 22361 4 180.0000771 4.6024000 2
22355 22362 22364 22365 4 180.0000771 4.6024000 2
22360 22362 22364 22365 1 180.0000771 15.1670000 2
22363 22362 22364 22365 1 180.0000771 15.1670000 2
22355 22364 22362 22360 1 180.0000771 15.1670000 2
22355 22364 22362 22363 1 180.0000771 15.1670000 2
22360 22364 22362 22363 4 180.0000771 4.6024000 2
22366 22367 22368 22369 1 180.0000771 15.1670000 2
22366 22367 22368 22370 1 180.0000771 15.1670000 2
22369 22367 22368 22370 4 180.0000771 4.6024000 2
22366 22367 22376 22368 4 180.0000771 4.6024000 2
22366 22367 22376 22374 1 180.0000771 15.1670000 2
22366 22367 22376 22377 1 180.0000771 15.1670000 2
22368 22367 22376 22374 1 180.0000771 15.1670000 2
22368 22367 22376 22377 1 180.0000771 15.1670000 2
22369 22368 22367 22376 1 180.0000771 15.1670000 2
22370 22368 22367 22376 1 180.0000771 15.1670000 2
22367 22368 22370 22371 1 180.0000771 15.1670000 2
22367 22368 22370 22372 1 180.0000771 15.1670000 2
22369 22368 22370 22371 1 180.0000771 15.1670000 2
22369 22368 22370 22372 1 180.0000771 15.1670000 2
22368 22370 22372 22373 1 180.0000771 15.1670000 2
22368 22370 22372 22374 1 180.0000771 15.1670000 2
22371 22370 22372 22373 1 180.0000771 15.1670000 2
22371 22370 22372 22374 1 180.0000771 15.1670000 2
22368 22372 22370 22371 4 180.0000771 4.6024000 2
22370 22372 22374 22375 1 180.0000771 15.1670000 2
22370 22372 22374 22376 1 180.0000771 15.1670000 2
22373 22372 22374 22375 1 180.0000771 15.1670000 2
22373 22372 22374 22376 1 180.0000771 15.1670000 2
22370 22374 22372 22373 4 180.0000771 4.6024000 2
22367 22374 22376 22377 4 180.0000771 4.6024000 2
22372 22374 22376 22377 1 180.0000771 15.1670000 2
22375 22374 22376 22377 1 180.0000771 15.1670000 2
22367 22376 22374 22372 1 180.0000771 15.1670000 2
22367 22376 22374 22375 1 180.0000771 15.1670000 2
22372 22376 22374 22375 4 180.0000771 4.6024000 2
22378 22379 22380 22381 1 180.0000771 15.1670000 2
22378 22379 22380 22382 1 180.0000771 15.1670000 2
22381 22379 22380 22382 4 180.0000771 4.6024000 2
22378 22379 22388 22380 4 180.0000771 4.6024000 2
22378 22379 22388 22386 1 180.0000771 15.1670000 2
22378 22379 22388 22389 1 180.0000771 15.1670000 2
22380 22379 22388 22386 1 180.0000771 15.1670000 2
22380 22379 22388 22389 1 180.0000771 15.1670000 2
22381 22380 22379 22388 1 180.0000771 15.1670000 2
22382 22380 22379 22388 1 180.0000771 15.1670000 2
22379 22380 22382 22383 1 180.0000771 15.1670000 2
22379 22380 22382 22384 1 180.0000771 15.1670000 2
22381 22380 22382 22383 1 180.0000771 15.1670000 2
22381 22380 22382 22384 1 180.0000771 15.1670000 2
22380 22382 22384 22385 1 180.0000771 15.1670000 2
22380 22382 22384 22386 1 180.0000771 15.1670000 2
22383 22382 22384 22385 1 180.0000771 15.1670000 2
22383 22382 22384 22386 1 180.0000771 15.1670000 2
22380 22384 22382 22383 4 180.0000771 4.6024000 2
22382 22384 22386 22387 1 180.0000771 15.1670000 2
22382 22384 22386 22388 1 180.0000771 15.1670000 2
22385 22384 22386 22387 1 180.0000771 15.1670000 2
22385 22384 22386 22388 1 180.0000771 15.1670000 2
22382 22386 22384 22385 4 180.0000771 4.6024000 2
22379 22386 22388 22389 4 180.0000771 4.6024000 2
22384 22386 22388 22389 1 180.0000771 15.1670000 2
22387 22386 22388 22389 1 180.0000771 15.1670000 2
22379 22388 22386 22384 1 180.0000771 15.1670000 2
22379 22388 22386 22387 1 180.0000771 15.1670000 2
22384 22388 22386 22387 4 180.0000771 4.6024000 2
22390 22391 22392 22393 1 180.0000771 15.1670000 2
22390 22391 22392 22394 1 180.0000771 15.1670000 2
22393 22391 22392 22394 4 180.0000771 4.6024000 2
22390 22391 22400 22392 4 180.0000771 4.6024000 2
22390 22391 22400 22398 1 180.0000771 15.1670000 2
22390 22391 22400 22401 1 180.0000771 15.1670000 2
22392 22391 22400 22398 1 180.0000771 15.1670000 2
22392 22391 22400 22401 1 180.0000771 15.1670000 2
22393 22392 22391 22400 1 180.0000771 15.1670000 2
22394 22392 22391 22400 1 180.0000771 15.1670000 2
22391 22392 22394 22395 1 180.0000771 15.1670000 2
22391 22392 22394 22396 1 180.0000771 15.1670000 2
22393 22392 22394 22395 1 180.0000771 15.1670000 2
22393 22392 22394 22396 1 180.0000771 15.1670000 2
22392 22394 22396 22397 1 180.0000771 15.1670000 2
22392 22394 22396 22398 1 180.0000771 15.1670000 2
22395 22394 22396 22397 1 180.0000771 15.1670000 2
22395 22394 22396 22398 1 180.0000771 15.1670000 2
22392 22396 22394 22395 4 180.0000771 4.6024000 2
22394 22396 22398 22399 1 180.0000771 15.1670000 2
22394 22396 22398 22400 1 180.0000771 15.1670000 2
22397 22396 22398 22399 1 180.0000771 15.1670000 2
22397 22396 22398 22400 1 180.0000771 15.1670000 2
22394 22398 22396 22397 4 180.0000771 4.6024000 2
22391 22398 22400 22401 4 180.0000771 4.6024000 2
22396 22398 22400 22401 1 180.0000771 15.1670000 2
22399 22398 22400 22401 1 180.0000771 15.1670000 2
22391 22400 22398 22396 1 180.0000771 15.1670000 2
22391 22400 22398 22399 1 180.0000771 15.1670000 2
22396 22400 22398 22399 4 180.0000771 4.6024000 2
22402 22403 22404 22405 1 180.0000771 15.1670000 2
22402 22403 22404 22406 1 180.0000771 15.1670000 2
22405 22403 22404 22406 4 180.0000771 4.6024000 2
22402 22403 22412 22404 4 180.0000771 4.6024000 2
22402 22403 22412 22410 1 180.0000771 15.1670000 2
22402 22403 22412 22413 1 180.0000771 15.1670000 2
22404 22403 22412 22410 1 180.0000771 15.1670000 2
22404 22403 22412 22413 1 180.0000771 15.1670000 2
22405 22404 22403 22412 1 180.0000771 15.1670000 2
22406 22404 22403 22412 1 180.0000771 15.1670000 2
22403 22404 22406 22407 1 180.0000771 15.1670000 2
22403 22404 22406 22408 1 180.0000771 15.1670000 2
22405 22404 22406 22407 1 180.0000771 15.1670000 2
22405 22404 22406 22408 1 180.0000771 15.1670000 2
22404 22406 22408 22409 1 180.0000771 15.1670000 2
22404 22406 22408 22410 1 180.0000771 15.1670000 2
22407 22406 22408 22409 1 180.0000771 15.1670000 2
22407 22406 22408 22410 1 180.0000771 15.1670000 2
22404 22408 22406 22407 4 180.0000771 4.6024000 2
22406 22408 22410 22411 1 180.0000771 15.1670000 2
22406 22408 22410 22412 1 180.0000771 15.1670000 2
22409 22408 22410 22411 1 180.0000771 15.1670000 2
22409 22408 22410 22412 1 180.0000771 15.1670000 2
22406 22410 22408 22409 4 180.0000771 4.6024000 2
22403 22410 22412 22413 4 180.0000771 4.6024000 2
22408 22410 22412 22413 1 180.0000771 15.1670000 2
22411 22410 22412 22413 1 180.0000771 15.1670000 2
22403 22412 22410 22408 1 180.0000771 15.1670000 2
22403 22412 22410 22411 1 180.0000771 15.1670000 2
22408 22412 22410 22411 4 180.0000771 4.6024000 2
22414 22415 22416 22417 1 180.0000771 15.1670000 2
22414 22415 22416 22418 1 180.0000771 15.1670000 2
22417 22415 22416 22418 4 180.0000771 4.6024000 2
22414 22415 22424 22416 4 180.0000771 4.6024000 2
22414 22415 22424 22422 1 180.0000771 15.1670000 2
22414 22415 22424 22425 1 180.0000771 15.1670000 2
22416 22415 22424 22422 1 180.0000771 15.1670000 2
22416 22415 22424 22425 1 180.0000771 15.1670000 2
22417 22416 22415 22424 1 180.0000771 15.1670000 2
22418 22416 22415 22424 1 180.0000771 15.1670000 2
22415 22416 22418 22419 1 180.0000771 15.1670000 2
22415 22416 22418 22420 1 180.0000771 15.1670000 2
22417 22416 22418 22419 1 180.0000771 15.1670000 2
22417 22416 22418 22420 1 180.0000771 15.1670000 2
22416 22418 22420 22421 1 180.0000771 15.1670000 2
22416 22418 22420 22422 1 180.0000771 15.1670000 2
22419 22418 22420 22421 1 180.0000771 15.1670000 2
22419 22418 22420 22422 1 180.0000771 15.1670000 2
22416 22420 22418 22419 4 180.0000771 4.6024000 2
22418 22420 22422 22423 1 180.0000771 15.1670000 2
22418 22420 22422 22424 1 180.0000771 15.1670000 2
22421 22420 22422 22423 1 180.0000771 15.1670000 2
22421 22420 22422 22424 1 180.0000771 15.1670000 2
22418 22422 22420 22421 4 180.0000771 4.6024000 2
22415 22422 22424 22425 4 180.0000771 4.6024000 2
22420 22422 22424 22425 1 180.0000771 15.1670000 2
22423 22422 22424 22425 1 180.0000771 15.1670000 2
22415 22424 22422 22420 1 180.0000771 15.1670000 2
22415 22424 22422 22423 1 180.0000771 15.1670000 2
22420 22424 22422 22423 4 180.0000771 4.6024000 2
22426 22427 22428 22429 1 180.0000771 15.1670000 2
22426 22427 22428 22430 1 180.0000771 15.1670000 2
22429 22427 22428 22430 4 180.0000771 4.6024000 2
22426 22427 22436 22428 4 180.0000771 4.6024000 2
22426 22427 22436 22434 1 180.0000771 15.1670000 2
22426 22427 22436 22437 1 180.0000771 15.1670000 2
22428 22427 22436 22434 1 180.0000771 15.1670000 2
22428 22427 22436 22437 1 180.0000771 15.1670000 2
22429 22428 22427 22436 1 180.0000771 15.1670000 2
22430 22428 22427 22436 1 180.0000771 15.1670000 2
22427 22428 22430 22431 1 180.0000771 15.1670000 2
22427 22428 22430 22432 1 180.0000771 15.1670000 2
22429 22428 22430 22431 1 180.0000771 15.1670000 2
22429 22428 22430 22432 1 180.0000771 15.1670000 2
22428 22430 22432 22433 1 180.0000771 15.1670000 2
22428 22430 22432 22434 1 180.0000771 15.1670000 2
22431 22430 22432 22433 1 180.0000771 15.1670000 2
22431 22430 22432 22434 1 180.0000771 15.1670000 2
22428 22432 22430 22431 4 180.0000771 4.6024000 2
22430 22432 22434 22435 1 180.0000771 15.1670000 2
22430 22432 22434 22436 1 180.0000771 15.1670000 2
22433 22432 22434 22435 1 180.0000771 15.1670000 2
22433 22432 22434 22436 1 180.0000771 15.1670000 2
22430 22434 22432 22433 4 180.0000771 4.6024000 2
22427 22434 22436 22437 4 180.0000771 4.6024000 2
22432 22434 22436 22437 1 180.0000771 15.1670000 2
22435 22434 22436 22437 1 180.0000771 15.1670000 2
22427 22436 22434 22432 1 180.0000771 15.1670000 2
22427 22436 22434 22435 1 180.0000771 15.1670000 2
22432 22436 22434 22435 4 180.0000771 4.6024000 2
22438 22439 22440 22441 1 180.0000771 15.1670000 2
22438 22439 22440 22442 1 180.0000771 15.1670000 2
22441 22439 22440 22442 4 180.0000771 4.6024000 2
22438 22439 22448 22440 4 180.0000771 4.6024000 2
22438 22439 22448 22446 1 180.0000771 15.1670000 2
22438 22439 22448 22449 1 180.0000771 15.1670000 2
22440 22439 22448 22446 1 180.0000771 15.1670000 2
22440 22439 22448 22449 1 180.0000771 15.1670000 2
22441 22440 22439 22448 1 180.0000771 15.1670000 2
22442 22440 22439 22448 1 180.0000771 15.1670000 2
22439 22440 22442 22443 1 180.0000771 15.1670000 2
22439 22440 22442 22444 1 180.0000771 15.1670000 2
22441 22440 22442 22443 1 180.0000771 15.1670000 2
22441 22440 22442 22444 1 180.0000771 15.1670000 2
22440 22442 22444 22445 1 180.0000771 15.1670000 2
22440 22442 22444 22446 1 180.0000771 15.1670000 2
22443 22442 22444 22445 1 180.0000771 15.1670000 2
22443 22442 22444 22446 1 180.0000771 15.1670000 2
22440 22444 22442 22443 4 180.0000771 4.6024000 2
22442 22444 22446 22447 1 180.0000771 15.1670000 2
22442 22444 22446 22448 1 180.0000771 15.1670000 2
22445 22444 22446 22447 1 180.0000771 15.1670000 2
22445 22444 22446 22448 1 180.0000771 15.1670000 2
22442 22446 22444 22445 4 180.0000771 4.6024000 2
22439 22446 22448 22449 4 180.0000771 4.6024000 2
22444 22446 22448 22449 1 180.0000771 15.1670000 2
22447 22446 22448 22449 1 180.0000771 15.1670000 2
22439 22448 22446 22444 1 180.0000771 15.1670000 2
22439 22448 22446 22447 1 180.0000771 15.1670000 2
22444 22448 22446 22447 4 180.0000771 4.6024000 2
22450 22451 22452 22453 1 180.0000771 15.1670000 2
22450 22451 22452 22454 1 180.0000771 15.1670000 2
22453 22451 22452 22454 4 180.0000771 4.6024000 2
22450 22451 22460 22452 4 180.0000771 4.6024000 2
22450 22451 22460 22458 1 180.0000771 15.1670000 2
22450 22451 22460 22461 1 180.0000771 15.1670000 2
22452 22451 22460 22458 1 180.0000771 15.1670000 2
22452 22451 22460 22461 1 180.0000771 15.1670000 2
22453 22452 22451 22460 1 180.0000771 15.1670000 2
22454 22452 22451 22460 1 180.0000771 15.1670000 2
22451 22452 22454 22455 1 180.0000771 15.1670000 2
22451 22452 22454 22456 1 180.0000771 15.1670000 2
22453 22452 22454 22455 1 180.0000771 15.1670000 2
22453 22452 22454 22456 1 180.0000771 15.1670000 2
22452 22454 22456 22457 1 180.0000771 15.1670000 2
22452 22454 22456 22458 1 180.0000771 15.1670000 2
22455 22454 22456 22457 1 180.0000771 15.1670000 2
22455 22454 22456 22458 1 180.0000771 15.1670000 2
22452 22456 22454 22455 4 180.0000771 4.6024000 2
22454 22456 22458 22459 1 180.0000771 15.1670000 2
22454 22456 22458 22460 1 180.0000771 15.1670000 2
22457 22456 22458 22459 1 180.0000771 15.1670000 2
22457 22456 22458 22460 1 180.0000771 15.1670000 2
22454 22458 22456 22457 4 180.0000771 4.6024000 2
22451 22458 22460 22461 4 180.0000771 4.6024000 2
22456 22458 22460 22461 1 180.0000771 15.1670000 2
22459 22458 22460 22461 1 180.0000771 15.1670000 2
22451 22460 22458 22456 1 180.0000771 15.1670000 2
22451 22460 22458 22459 1 180.0000771 15.1670000 2
22456 22460 22458 22459 4 180.0000771 4.6024000 2
22462 22463 22464 22465 1 180.0000771 15.1670000 2
22462 22463 22464 22466 1 180.0000771 15.1670000 2
22465 22463 22464 22466 4 180.0000771 4.6024000 2
22462 22463 22472 22464 4 180.0000771 4.6024000 2
22462 22463 22472 22470 1 180.0000771 15.1670000 2
22462 22463 22472 22473 1 180.0000771 15.1670000 2
22464 22463 22472 22470 1 180.0000771 15.1670000 2
22464 22463 22472 22473 1 180.0000771 15.1670000 2
22465 22464 22463 22472 1 180.0000771 15.1670000 2
22466 22464 22463 22472 1 180.0000771 15.1670000 2
22463 22464 22466 22467 1 180.0000771 15.1670000 2
22463 22464 22466 22468 1 180.0000771 15.1670000 2
22465 22464 22466 22467 1 180.0000771 15.1670000 2
22465 22464 22466 22468 1 180.0000771 15.1670000 2
22464 22466 22468 22469 1 180.0000771 15.1670000 2
22464 22466 22468 22470 1 180.0000771 15.1670000 2
22467 22466 22468 22469 1 180.0000771 15.1670000 2
22467 22466 22468 22470 1 180.0000771 15.1670000 2
22464 22468 22466 22467 4 180.0000771 4.6024000 2
22466 22468 22470 22471 1 180.0000771 15.1670000 2
22466 22468 22470 22472 1 180.0000771 15.1670000 2
22469 22468 22470 22471 1 180.0000771 15.1670000 2
22469 22468 22470 22472 1 180.0000771 15.1670000 2
22466 22470 22468 22469 4 180.0000771 4.6024000 2
22463 22470 22472 22473 4 180.0000771 4.6024000 2
22468 22470 22472 22473 1 180.0000771 15.1670000 2
22471 22470 22472 22473 1 180.0000771 15.1670000 2
22463 22472 22470 22468 1 180.0000771 15.1670000 2
22463 22472 22470 22471 1 180.0000771 15.1670000 2
22468 22472 22470 22471 4 180.0000771 4.6024000 2
22474 22475 22476 22477 1 180.0000771 15.1670000 2
22474 22475 22476 22478 1 180.0000771 15.1670000 2
22477 22475 22476 22478 4 180.0000771 4.6024000 2
22474 22475 22484 22476 4 180.0000771 4.6024000 2
22474 22475 22484 22482 1 180.0000771 15.1670000 2
22474 22475 22484 22485 1 180.0000771 15.1670000 2
22476 22475 22484 22482 1 180.0000771 15.1670000 2
22476 22475 22484 22485 1 180.0000771 15.1670000 2
22477 22476 22475 22484 1 180.0000771 15.1670000 2
22478 22476 22475 22484 1 180.0000771 15.1670000 2
22475 22476 22478 22479 1 180.0000771 15.1670000 2
22475 22476 22478 22480 1 180.0000771 15.1670000 2
22477 22476 22478 22479 1 180.0000771 15.1670000 2
22477 22476 22478 22480 1 180.0000771 15.1670000 2
22476 22478 22480 22481 1 180.0000771 15.1670000 2
22476 22478 22480 22482 1 180.0000771 15.1670000 2
22479 22478 22480 22481 1 180.0000771 15.1670000 2
22479 22478 22480 22482 1 180.0000771 15.1670000 2
22476 22480 22478 22479 4 180.0000771 4.6024000 2
22478 22480 22482 22483 1 180.0000771 15.1670000 2
22478 22480 22482 22484 1 180.0000771 15.1670000 2
22481 22480 22482 22483 1 180.0000771 15.1670000 2
22481 22480 22482 22484 1 180.0000771 15.1670000 2
22478 22482 22480 22481 4 180.0000771 4.6024000 2
22475 22482 22484 22485 4 180.0000771 4.6024000 2
22480 22482 22484 22485 1 180.0000771 15.1670000 2
22483 22482 22484 22485 1 180.0000771 15.1670000 2
22475 22484 22482 22480 1 180.0000771 15.1670000 2
22475 22484 22482 22483 1 180.0000771 15.1670000 2
22480 22484 22482 22483 4 180.0000771 4.6024000 2
22486 22487 22488 22489 1 180.0000771 15.1670000 2
22486 22487 22488 22490 1 180.0000771 15.1670000 2
22489 22487 22488 22490 4 180.0000771 4.6024000 2
22486 22487 22496 22488 4 180.0000771 4.6024000 2
22486 22487 22496 22494 1 180.0000771 15.1670000 2
22486 22487 22496 22497 1 180.0000771 15.1670000 2
22488 22487 22496 22494 1 180.0000771 15.1670000 2
22488 22487 22496 22497 1 180.0000771 15.1670000 2
22489 22488 22487 22496 1 180.0000771 15.1670000 2
22490 22488 22487 22496 1 180.0000771 15.1670000 2
22487 22488 22490 22491 1 180.0000771 15.1670000 2
22487 22488 22490 22492 1 180.0000771 15.1670000 2
22489 22488 22490 22491 1 180.0000771 15.1670000 2
22489 22488 22490 22492 1 180.0000771 15.1670000 2
22488 22490 22492 22493 1 180.0000771 15.1670000 2
22488 22490 22492 22494 1 180.0000771 15.1670000 2
22491 22490 22492 22493 1 180.0000771 15.1670000 2
22491 22490 22492 22494 1 180.0000771 15.1670000 2
22488 22492 22490 22491 4 180.0000771 4.6024000 2
22490 22492 22494 22495 1 180.0000771 15.1670000 2
22490 22492 22494 22496 1 180.0000771 15.1670000 2
22493 22492 22494 22495 1 180.0000771 15.1670000 2
22493 22492 22494 22496 1 180.0000771 15.1670000 2
22490 22494 22492 22493 4 180.0000771 4.6024000 2
22487 22494 22496 22497 4 180.0000771 4.6024000 2
22492 22494 22496 22497 1 180.0000771 15.1670000 2
22495 22494 22496 22497 1 180.0000771 15.1670000 2
22487 22496 22494 22492 1 180.0000771 15.1670000 2
22487 22496 22494 22495 1 180.0000771 15.1670000 2
22492 22496 22494 22495 4 180.0000771 4.6024000 2
22498 22499 22500 22501 1 180.0000771 15.1670000 2
22498 22499 22500 22502 1 180.0000771 15.1670000 2
22501 22499 22500 22502 4 180.0000771 4.6024000 2
22498 22499 22508 22500 4 180.0000771 4.6024000 2
22498 22499 22508 22506 1 180.0000771 15.1670000 2
22498 22499 22508 22509 1 180.0000771 15.1670000 2
22500 22499 22508 22506 1 180.0000771 15.1670000 2
22500 22499 22508 22509 1 180.0000771 15.1670000 2
22501 22500 22499 22508 1 180.0000771 15.1670000 2
22502 22500 22499 22508 1 180.0000771 15.1670000 2
22499 22500 22502 22503 1 180.0000771 15.1670000 2
22499 22500 22502 22504 1 180.0000771 15.1670000 2
22501 22500 22502 22503 1 180.0000771 15.1670000 2
22501 22500 22502 22504 1 180.0000771 15.1670000 2
22500 22502 22504 22505 1 180.0000771 15.1670000 2
22500 22502 22504 22506 1 180.0000771 15.1670000 2
22503 22502 22504 22505 1 180.0000771 15.1670000 2
22503 22502 22504 22506 1 180.0000771 15.1670000 2
22500 22504 22502 22503 4 180.0000771 4.6024000 2
22502 22504 22506 22507 1 180.0000771 15.1670000 2
22502 22504 22506 22508 1 180.0000771 15.1670000 2
22505 22504 22506 22507 1 180.0000771 15.1670000 2
22505 22504 22506 22508 1 180.0000771 15.1670000 2
22502 22506 22504 22505 4 180.0000771 4.6024000 2
22499 22506 22508 22509 4 180.0000771 4.6024000 2
22504 22506 22508 22509 1 180.0000771 15.1670000 2
22507 22506 22508 22509 1 180.0000771 15.1670000 2
22499 22508 22506 22504 1 180.0000771 15.1670000 2
22499 22508 22506 22507 1 180.0000771 15.1670000 2
22504 22508 22506 22507 4 180.0000771 4.6024000 2
22510 22511 22512 22513 1 180.0000771 15.1670000 2
22510 22511 22512 22514 1 180.0000771 15.1670000 2
22513 22511 22512 22514 4 180.0000771 4.6024000 2
22510 22511 22520 22512 4 180.0000771 4.6024000 2
22510 22511 22520 22518 1 180.0000771 15.1670000 2
22510 22511 22520 22521 1 180.0000771 15.1670000 2
22512 22511 22520 22518 1 180.0000771 15.1670000 2
22512 22511 22520 22521 1 180.0000771 15.1670000 2
22513 22512 22511 22520 1 180.0000771 15.1670000 2
22514 22512 22511 22520 1 180.0000771 15.1670000 2
22511 22512 22514 22515 1 180.0000771 15.1670000 2
22511 22512 22514 22516 1 180.0000771 15.1670000 2
22513 22512 22514 22515 1 180.0000771 15.1670000 2
22513 22512 22514 22516 1 180.0000771 15.1670000 2
22512 22514 22516 22517 1 180.0000771 15.1670000 2
22512 22514 22516 22518 1 180.0000771 15.1670000 2
22515 22514 22516 22517 1 180.0000771 15.1670000 2
22515 22514 22516 22518 1 180.0000771 15.1670000 2
22512 22516 22514 22515 4 180.0000771 4.6024000 2
22514 22516 22518 22519 1 180.0000771 15.1670000 2
22514 22516 22518 22520 1 180.0000771 15.1670000 2
22517 22516 22518 22519 1 180.0000771 15.1670000 2
22517 22516 22518 22520 1 180.0000771 15.1670000 2
22514 22518 22516 22517 4 180.0000771 4.6024000 2
22511 22518 22520 22521 4 180.0000771 4.6024000 2
22516 22518 22520 22521 1 180.0000771 15.1670000 2
22519 22518 22520 22521 1 180.0000771 15.1670000 2
22511 22520 22518 22516 1 180.0000771 15.1670000 2
22511 22520 22518 22519 1 180.0000771 15.1670000 2
22516 22520 22518 22519 4 180.0000771 4.6024000 2
22522 22523 22524 22525 1 180.0000771 15.1670000 2
22522 22523 22524 22526 1 180.0000771 15.1670000 2
22525 22523 22524 22526 4 180.0000771 4.6024000 2
22522 22523 22532 22524 4 180.0000771 4.6024000 2
22522 22523 22532 22530 1 180.0000771 15.1670000 2
22522 22523 22532 22533 1 180.0000771 15.1670000 2
22524 22523 22532 22530 1 180.0000771 15.1670000 2
22524 22523 22532 22533 1 180.0000771 15.1670000 2
22525 22524 22523 22532 1 180.0000771 15.1670000 2
22526 22524 22523 22532 1 180.0000771 15.1670000 2
22523 22524 22526 22527 1 180.0000771 15.1670000 2
22523 22524 22526 22528 1 180.0000771 15.1670000 2
22525 22524 22526 22527 1 180.0000771 15.1670000 2
22525 22524 22526 22528 1 180.0000771 15.1670000 2
22524 22526 22528 22529 1 180.0000771 15.1670000 2
22524 22526 22528 22530 1 180.0000771 15.1670000 2
22527 22526 22528 22529 1 180.0000771 15.1670000 2
22527 22526 22528 22530 1 180.0000771 15.1670000 2
22524 22528 22526 22527 4 180.0000771 4.6024000 2
22526 22528 22530 22531 1 180.0000771 15.1670000 2
22526 22528 22530 22532 1 180.0000771 15.1670000 2
22529 22528 22530 22531 1 180.0000771 15.1670000 2
22529 22528 22530 22532 1 180.0000771 15.1670000 2
22526 22530 22528 22529 4 180.0000771 4.6024000 2
22523 22530 22532 22533 4 180.0000771 4.6024000 2
22528 22530 22532 22533 1 180.0000771 15.1670000 2
22531 22530 22532 22533 1 180.0000771 15.1670000 2
22523 22532 22530 22528 1 180.0000771 15.1670000 2
22523 22532 22530 22531 1 180.0000771 15.1670000 2
22528 22532 22530 22531 4 180.0000771 4.6024000 2
22534 22535 22536 22537 1 180.0000771 15.1670000 2
22534 22535 22536 22538 1 180.0000771 15.1670000 2
22537 22535 22536 22538 4 180.0000771 4.6024000 2
22534 22535 22544 22536 4 180.0000771 4.6024000 2
22534 22535 22544 22542 1 180.0000771 15.1670000 2
22534 22535 22544 22545 1 180.0000771 15.1670000 2
22536 22535 22544 22542 1 180.0000771 15.1670000 2
22536 22535 22544 22545 1 180.0000771 15.1670000 2
22537 22536 22535 22544 1 180.0000771 15.1670000 2
22538 22536 22535 22544 1 180.0000771 15.1670000 2
22535 22536 22538 22539 1 180.0000771 15.1670000 2
22535 22536 22538 22540 1 180.0000771 15.1670000 2
22537 22536 22538 22539 1 180.0000771 15.1670000 2
22537 22536 22538 22540 1 180.0000771 15.1670000 2
22536 22538 22540 22541 1 180.0000771 15.1670000 2
22536 22538 22540 22542 1 180.0000771 15.1670000 2
22539 22538 22540 22541 1 180.0000771 15.1670000 2
22539 22538 22540 22542 1 180.0000771 15.1670000 2
22536 22540 22538 22539 4 180.0000771 4.6024000 2
22538 22540 22542 22543 1 180.0000771 15.1670000 2
22538 22540 22542 22544 1 180.0000771 15.1670000 2
22541 22540 22542 22543 1 180.0000771 15.1670000 2
22541 22540 22542 22544 1 180.0000771 15.1670000 2
22538 22542 22540 22541 4 180.0000771 4.6024000 2
22535 22542 22544 22545 4 180.0000771 4.6024000 2
22540 22542 22544 22545 1 180.0000771 15.1670000 2
22543 22542 22544 22545 1 180.0000771 15.1670000 2
22535 22544 22542 22540 1 180.0000771 15.1670000 2
22535 22544 22542 22543 1 180.0000771 15.1670000 2
22540 22544 22542 22543 4 180.0000771 4.6024000 2
22546 22547 22548 22549 1 180.0000771 15.1670000 2
22546 22547 22548 22550 1 180.0000771 15.1670000 2
22549 22547 22548 22550 4 180.0000771 4.6024000 2
22546 22547 22556 22548 4 180.0000771 4.6024000 2
22546 22547 22556 22554 1 180.0000771 15.1670000 2
22546 22547 22556 22557 1 180.0000771 15.1670000 2
22548 22547 22556 22554 1 180.0000771 15.1670000 2
22548 22547 22556 22557 1 180.0000771 15.1670000 2
22549 22548 22547 22556 1 180.0000771 15.1670000 2
22550 22548 22547 22556 1 180.0000771 15.1670000 2
22547 22548 22550 22551 1 180.0000771 15.1670000 2
22547 22548 22550 22552 1 180.0000771 15.1670000 2
22549 22548 22550 22551 1 180.0000771 15.1670000 2
22549 22548 22550 22552 1 180.0000771 15.1670000 2
22548 22550 22552 22553 1 180.0000771 15.1670000 2
22548 22550 22552 22554 1 180.0000771 15.1670000 2
22551 22550 22552 22553 1 180.0000771 15.1670000 2
22551 22550 22552 22554 1 180.0000771 15.1670000 2
22548 22552 22550 22551 4 180.0000771 4.6024000 2
22550 22552 22554 22555 1 180.0000771 15.1670000 2
22550 22552 22554 22556 1 180.0000771 15.1670000 2
22553 22552 22554 22555 1 180.0000771 15.1670000 2
22553 22552 22554 22556 1 180.0000771 15.1670000 2
22550 22554 22552 22553 4 180.0000771 4.6024000 2
22547 22554 22556 22557 4 180.0000771 4.6024000 2
22552 22554 22556 22557 1 180.0000771 15.1670000 2
22555 22554 22556 22557 1 180.0000771 15.1670000 2
22547 22556 22554 22552 1 180.0000771 15.1670000 2
22547 22556 22554 22555 1 180.0000771 15.1670000 2
22552 22556 22554 22555 4 180.0000771 4.6024000 2
22558 22559 22560 22561 1 180.0000771 15.1670000 2
22558 22559 22560 22562 1 180.0000771 15.1670000 2
22561 22559 22560 22562 4 180.0000771 4.6024000 2
22558 22559 22568 22560 4 180.0000771 4.6024000 2
22558 22559 22568 22566 1 180.0000771 15.1670000 2
22558 22559 22568 22569 1 180.0000771 15.1670000 2
22560 22559 22568 22566 1 180.0000771 15.1670000 2
22560 22559 22568 22569 1 180.0000771 15.1670000 2
22561 22560 22559 22568 1 180.0000771 15.1670000 2
22562 22560 22559 22568 1 180.0000771 15.1670000 2
22559 22560 22562 22563 1 180.0000771 15.1670000 2
22559 22560 22562 22564 1 180.0000771 15.1670000 2
22561 22560 22562 22563 1 180.0000771 15.1670000 2
22561 22560 22562 22564 1 180.0000771 15.1670000 2
22560 22562 22564 22565 1 180.0000771 15.1670000 2
22560 22562 22564 22566 1 180.0000771 15.1670000 2
22563 22562 22564 22565 1 180.0000771 15.1670000 2
22563 22562 22564 22566 1 180.0000771 15.1670000 2
22560 22564 22562 22563 4 180.0000771 4.6024000 2
22562 22564 22566 22567 1 180.0000771 15.1670000 2
22562 22564 22566 22568 1 180.0000771 15.1670000 2
22565 22564 22566 22567 1 180.0000771 15.1670000 2
22565 22564 22566 22568 1 180.0000771 15.1670000 2
22562 22566 22564 22565 4 180.0000771 4.6024000 2
22559 22566 22568 22569 4 180.0000771 4.6024000 2
22564 22566 22568 22569 1 180.0000771 15.1670000 2
22567 22566 22568 22569 1 180.0000771 15.1670000 2
22559 22568 22566 22564 1 180.0000771 15.1670000 2
22559 22568 22566 22567 1 180.0000771 15.1670000 2
22564 22568 22566 22567 4 180.0000771 4.6024000 2
22570 22571 22572 22573 1 180.0000771 15.1670000 2
22570 22571 22572 22574 1 180.0000771 15.1670000 2
22573 22571 22572 22574 4 180.0000771 4.6024000 2
22570 22571 22580 22572 4 180.0000771 4.6024000 2
22570 22571 22580 22578 1 180.0000771 15.1670000 2
22570 22571 22580 22581 1 180.0000771 15.1670000 2
22572 22571 22580 22578 1 180.0000771 15.1670000 2
22572 22571 22580 22581 1 180.0000771 15.1670000 2
22573 22572 22571 22580 1 180.0000771 15.1670000 2
22574 22572 22571 22580 1 180.0000771 15.1670000 2
22571 22572 22574 22575 1 180.0000771 15.1670000 2
22571 22572 22574 22576 1 180.0000771 15.1670000 2
22573 22572 22574 22575 1 180.0000771 15.1670000 2
22573 22572 22574 22576 1 180.0000771 15.1670000 2
22572 22574 22576 22577 1 180.0000771 15.1670000 2
22572 22574 22576 22578 1 180.0000771 15.1670000 2
22575 22574 22576 22577 1 180.0000771 15.1670000 2
22575 22574 22576 22578 1 180.0000771 15.1670000 2
22572 22576 22574 22575 4 180.0000771 4.6024000 2
22574 22576 22578 22579 1 180.0000771 15.1670000 2
22574 22576 22578 22580 1 180.0000771 15.1670000 2
22577 22576 22578 22579 1 180.0000771 15.1670000 2
22577 22576 22578 22580 1 180.0000771 15.1670000 2
22574 22578 22576 22577 4 180.0000771 4.6024000 2
22571 22578 22580 22581 4 180.0000771 4.6024000 2
22576 22578 22580 22581 1 180.0000771 15.1670000 2
22579 22578 22580 22581 1 180.0000771 15.1670000 2
22571 22580 22578 22576 1 180.0000771 15.1670000 2
22571 22580 22578 22579 1 180.0000771 15.1670000 2
22576 22580 22578 22579 4 180.0000771 4.6024000 2
22582 22583 22584 22585 1 180.0000771 15.1670000 2
22582 22583 22584 22586 1 180.0000771 15.1670000 2
22585 22583 22584 22586 4 180.0000771 4.6024000 2
22582 22583 22592 22584 4 180.0000771 4.6024000 2
22582 22583 22592 22590 1 180.0000771 15.1670000 2
22582 22583 22592 22593 1 180.0000771 15.1670000 2
22584 22583 22592 22590 1 180.0000771 15.1670000 2
22584 22583 22592 22593 1 180.0000771 15.1670000 2
22585 22584 22583 22592 1 180.0000771 15.1670000 2
22586 22584 22583 22592 1 180.0000771 15.1670000 2
22583 22584 22586 22587 1 180.0000771 15.1670000 2
22583 22584 22586 22588 1 180.0000771 15.1670000 2
22585 22584 22586 22587 1 180.0000771 15.1670000 2
22585 22584 22586 22588 1 180.0000771 15.1670000 2
22584 22586 22588 22589 1 180.0000771 15.1670000 2
22584 22586 22588 22590 1 180.0000771 15.1670000 2
22587 22586 22588 22589 1 180.0000771 15.1670000 2
22587 22586 22588 22590 1 180.0000771 15.1670000 2
22584 22588 22586 22587 4 180.0000771 4.6024000 2
22586 22588 22590 22591 1 180.0000771 15.1670000 2
22586 22588 22590 22592 1 180.0000771 15.1670000 2
22589 22588 22590 22591 1 180.0000771 15.1670000 2
22589 22588 22590 22592 1 180.0000771 15.1670000 2
22586 22590 22588 22589 4 180.0000771 4.6024000 2
22583 22590 22592 22593 4 180.0000771 4.6024000 2
22588 22590 22592 22593 1 180.0000771 15.1670000 2
22591 22590 22592 22593 1 180.0000771 15.1670000 2
22583 22592 22590 22588 1 180.0000771 15.1670000 2
22583 22592 22590 22591 1 180.0000771 15.1670000 2
22588 22592 22590 22591 4 180.0000771 4.6024000 2
22594 22595 22596 22597 1 180.0000771 15.1670000 2
22594 22595 22596 22598 1 180.0000771 15.1670000 2
22597 22595 22596 22598 4 180.0000771 4.6024000 2
22594 22595 22604 22596 4 180.0000771 4.6024000 2
22594 22595 22604 22602 1 180.0000771 15.1670000 2
22594 22595 22604 22605 1 180.0000771 15.1670000 2
22596 22595 22604 22602 1 180.0000771 15.1670000 2
22596 22595 22604 22605 1 180.0000771 15.1670000 2
22597 22596 22595 22604 1 180.0000771 15.1670000 2
22598 22596 22595 22604 1 180.0000771 15.1670000 2
22595 22596 22598 22599 1 180.0000771 15.1670000 2
22595 22596 22598 22600 1 180.0000771 15.1670000 2
22597 22596 22598 22599 1 180.0000771 15.1670000 2
22597 22596 22598 22600 1 180.0000771 15.1670000 2
22596 22598 22600 22601 1 180.0000771 15.1670000 2
22596 22598 22600 22602 1 180.0000771 15.1670000 2
22599 22598 22600 22601 1 180.0000771 15.1670000 2
22599 22598 22600 22602 1 180.0000771 15.1670000 2
22596 22600 22598 22599 4 180.0000771 4.6024000 2
22598 22600 22602 22603 1 180.0000771 15.1670000 2
22598 22600 22602 22604 1 180.0000771 15.1670000 2
22601 22600 22602 22603 1 180.0000771 15.1670000 2
22601 22600 22602 22604 1 180.0000771 15.1670000 2
22598 22602 22600 22601 4 180.0000771 4.6024000 2
22595 22602 22604 22605 4 180.0000771 4.6024000 2
22600 22602 22604 22605 1 180.0000771 15.1670000 2
22603 22602 22604 22605 1 180.0000771 15.1670000 2
22595 22604 22602 22600 1 180.0000771 15.1670000 2
22595 22604 22602 22603 1 180.0000771 15.1670000 2
22600 22604 22602 22603 4 180.0000771 4.6024000 2
22606 22607 22608 22609 1 180.0000771 15.1670000 2
22606 22607 22608 22610 1 180.0000771 15.1670000 2
22609 22607 22608 22610 4 180.0000771 4.6024000 2
22606 22607 22616 22608 4 180.0000771 4.6024000 2
22606 22607 22616 22614 1 180.0000771 15.1670000 2
22606 22607 22616 22617 1 180.0000771 15.1670000 2
22608 22607 22616 22614 1 180.0000771 15.1670000 2
22608 22607 22616 22617 1 180.0000771 15.1670000 2
22609 22608 22607 22616 1 180.0000771 15.1670000 2
22610 22608 22607 22616 1 180.0000771 15.1670000 2
22607 22608 22610 22611 1 180.0000771 15.1670000 2
22607 22608 22610 22612 1 180.0000771 15.1670000 2
22609 22608 22610 22611 1 180.0000771 15.1670000 2
22609 22608 22610 22612 1 180.0000771 15.1670000 2
22608 22610 22612 22613 1 180.0000771 15.1670000 2
22608 22610 22612 22614 1 180.0000771 15.1670000 2
22611 22610 22612 22613 1 180.0000771 15.1670000 2
22611 22610 22612 22614 1 180.0000771 15.1670000 2
22608 22612 22610 22611 4 180.0000771 4.6024000 2
22610 22612 22614 22615 1 180.0000771 15.1670000 2
22610 22612 22614 22616 1 180.0000771 15.1670000 2
22613 22612 22614 22615 1 180.0000771 15.1670000 2
22613 22612 22614 22616 1 180.0000771 15.1670000 2
22610 22614 22612 22613 4 180.0000771 4.6024000 2
22607 22614 22616 22617 4 180.0000771 4.6024000 2
22612 22614 22616 22617 1 180.0000771 15.1670000 2
22615 22614 22616 22617 1 180.0000771 15.1670000 2
22607 22616 22614 22612 1 180.0000771 15.1670000 2
22607 22616 22614 22615 1 180.0000771 15.1670000 2
22612 22616 22614 22615 4 180.0000771 4.6024000 2
22618 22619 22620 22621 1 180.0000771 15.1670000 2
22618 22619 22620 22622 1 180.0000771 15.1670000 2
22621 22619 22620 22622 4 180.0000771 4.6024000 2
22618 22619 22628 22620 4 180.0000771 4.6024000 2
22618 22619 22628 22626 1 180.0000771 15.1670000 2
22618 22619 22628 22629 1 180.0000771 15.1670000 2
22620 22619 22628 22626 1 180.0000771 15.1670000 2
22620 22619 22628 22629 1 180.0000771 15.1670000 2
22621 22620 22619 22628 1 180.0000771 15.1670000 2
22622 22620 22619 22628 1 180.0000771 15.1670000 2
22619 22620 22622 22623 1 180.0000771 15.1670000 2
22619 22620 22622 22624 1 180.0000771 15.1670000 2
22621 22620 22622 22623 1 180.0000771 15.1670000 2
22621 22620 22622 22624 1 180.0000771 15.1670000 2
22620 22622 22624 22625 1 180.0000771 15.1670000 2
22620 22622 22624 22626 1 180.0000771 15.1670000 2
22623 22622 22624 22625 1 180.0000771 15.1670000 2
22623 22622 22624 22626 1 180.0000771 15.1670000 2
22620 22624 22622 22623 4 180.0000771 4.6024000 2
22622 22624 22626 22627 1 180.0000771 15.1670000 2
22622 22624 22626 22628 1 180.0000771 15.1670000 2
22625 22624 22626 22627 1 180.0000771 15.1670000 2
22625 22624 22626 22628 1 180.0000771 15.1670000 2
22622 22626 22624 22625 4 180.0000771 4.6024000 2
22619 22626 22628 22629 4 180.0000771 4.6024000 2
22624 22626 22628 22629 1 180.0000771 15.1670000 2
22627 22626 22628 22629 1 180.0000771 15.1670000 2
22619 22628 22626 22624 1 180.0000771 15.1670000 2
22619 22628 22626 22627 1 180.0000771 15.1670000 2
22624 22628 22626 22627 4 180.0000771 4.6024000 2
22630 22631 22632 22633 1 180.0000771 15.1670000 2
22630 22631 22632 22634 1 180.0000771 15.1670000 2
22633 22631 22632 22634 4 180.0000771 4.6024000 2
22630 22631 22640 22632 4 180.0000771 4.6024000 2
22630 22631 22640 22638 1 180.0000771 15.1670000 2
22630 22631 22640 22641 1 180.0000771 15.1670000 2
22632 22631 22640 22638 1 180.0000771 15.1670000 2
22632 22631 22640 22641 1 180.0000771 15.1670000 2
22633 22632 22631 22640 1 180.0000771 15.1670000 2
22634 22632 22631 22640 1 180.0000771 15.1670000 2
22631 22632 22634 22635 1 180.0000771 15.1670000 2
22631 22632 22634 22636 1 180.0000771 15.1670000 2
22633 22632 22634 22635 1 180.0000771 15.1670000 2
22633 22632 22634 22636 1 180.0000771 15.1670000 2
22632 22634 22636 22637 1 180.0000771 15.1670000 2
22632 22634 22636 22638 1 180.0000771 15.1670000 2
22635 22634 22636 22637 1 180.0000771 15.1670000 2
22635 22634 22636 22638 1 180.0000771 15.1670000 2
22632 22636 22634 22635 4 180.0000771 4.6024000 2
22634 22636 22638 22639 1 180.0000771 15.1670000 2
22634 22636 22638 22640 1 180.0000771 15.1670000 2
22637 22636 22638 22639 1 180.0000771 15.1670000 2
22637 22636 22638 22640 1 180.0000771 15.1670000 2
22634 22638 22636 22637 4 180.0000771 4.6024000 2
22631 22638 22640 22641 4 180.0000771 4.6024000 2
22636 22638 22640 22641 1 180.0000771 15.1670000 2
22639 22638 22640 22641 1 180.0000771 15.1670000 2
22631 22640 22638 22636 1 180.0000771 15.1670000 2
22631 22640 22638 22639 1 180.0000771 15.1670000 2
22636 22640 22638 22639 4 180.0000771 4.6024000 2
22642 22643 22644 22645 1 180.0000771 15.1670000 2
22642 22643 22644 22646 1 180.0000771 15.1670000 2
22645 22643 22644 22646 4 180.0000771 4.6024000 2
22642 22643 22652 22644 4 180.0000771 4.6024000 2
22642 22643 22652 22650 1 180.0000771 15.1670000 2
22642 22643 22652 22653 1 180.0000771 15.1670000 2
22644 22643 22652 22650 1 180.0000771 15.1670000 2
22644 22643 22652 22653 1 180.0000771 15.1670000 2
22645 22644 22643 22652 1 180.0000771 15.1670000 2
22646 22644 22643 22652 1 180.0000771 15.1670000 2
22643 22644 22646 22647 1 180.0000771 15.1670000 2
22643 22644 22646 22648 1 180.0000771 15.1670000 2
22645 22644 22646 22647 1 180.0000771 15.1670000 2
22645 22644 22646 22648 1 180.0000771 15.1670000 2
22644 22646 22648 22649 1 180.0000771 15.1670000 2
22644 22646 22648 22650 1 180.0000771 15.1670000 2
22647 22646 22648 22649 1 180.0000771 15.1670000 2
22647 22646 22648 22650 1 180.0000771 15.1670000 2
22644 22648 22646 22647 4 180.0000771 4.6024000 2
22646 22648 22650 22651 1 180.0000771 15.1670000 2
22646 22648 22650 22652 1 180.0000771 15.1670000 2
22649 22648 22650 22651 1 180.0000771 15.1670000 2
22649 22648 22650 22652 1 180.0000771 15.1670000 2
22646 22650 22648 22649 4 180.0000771 4.6024000 2
22643 22650 22652 22653 4 180.0000771 4.6024000 2
22648 22650 22652 22653 1 180.0000771 15.1670000 2
22651 22650 22652 22653 1 180.0000771 15.1670000 2
22643 22652 22650 22648 1 180.0000771 15.1670000 2
22643 22652 22650 22651 1 180.0000771 15.1670000 2
22648 22652 22650 22651 4 180.0000771 4.6024000 2
22654 22655 22656 22657 1 180.0000771 15.1670000 2
22654 22655 22656 22658 1 180.0000771 15.1670000 2
22657 22655 22656 22658 4 180.0000771 4.6024000 2
22654 22655 22664 22656 4 180.0000771 4.6024000 2
22654 22655 22664 22662 1 180.0000771 15.1670000 2
22654 22655 22664 22665 1 180.0000771 15.1670000 2
22656 22655 22664 22662 1 180.0000771 15.1670000 2
22656 22655 22664 22665 1 180.0000771 15.1670000 2
22657 22656 22655 22664 1 180.0000771 15.1670000 2
22658 22656 22655 22664 1 180.0000771 15.1670000 2
22655 22656 22658 22659 1 180.0000771 15.1670000 2
22655 22656 22658 22660 1 180.0000771 15.1670000 2
22657 22656 22658 22659 1 180.0000771 15.1670000 2
22657 22656 22658 22660 1 180.0000771 15.1670000 2
22656 22658 22660 22661 1 180.0000771 15.1670000 2
22656 22658 22660 22662 1 180.0000771 15.1670000 2
22659 22658 22660 22661 1 180.0000771 15.1670000 2
22659 22658 22660 22662 1 180.0000771 15.1670000 2
22656 22660 22658 22659 4 180.0000771 4.6024000 2
22658 22660 22662 22663 1 180.0000771 15.1670000 2
22658 22660 22662 22664 1 180.0000771 15.1670000 2
22661 22660 22662 22663 1 180.0000771 15.1670000 2
22661 22660 22662 22664 1 180.0000771 15.1670000 2
22658 22662 22660 22661 4 180.0000771 4.6024000 2
22655 22662 22664 22665 4 180.0000771 4.6024000 2
22660 22662 22664 22665 1 180.0000771 15.1670000 2
22663 22662 22664 22665 1 180.0000771 15.1670000 2
22655 22664 22662 22660 1 180.0000771 15.1670000 2
22655 22664 22662 22663 1 180.0000771 15.1670000 2
22660 22664 22662 22663 4 180.0000771 4.6024000 2
22666 22667 22668 22669 1 180.0000771 15.1670000 2
22666 22667 22668 22670 1 180.0000771 15.1670000 2
22669 22667 22668 22670 4 180.0000771 4.6024000 2
22666 22667 22676 22668 4 180.0000771 4.6024000 2
22666 22667 22676 22674 1 180.0000771 15.1670000 2
22666 22667 22676 22677 1 180.0000771 15.1670000 2
22668 22667 22676 22674 1 180.0000771 15.1670000 2
22668 22667 22676 22677 1 180.0000771 15.1670000 2
22669 22668 22667 22676 1 180.0000771 15.1670000 2
22670 22668 22667 22676 1 180.0000771 15.1670000 2
22667 22668 22670 22671 1 180.0000771 15.1670000 2
22667 22668 22670 22672 1 180.0000771 15.1670000 2
22669 22668 22670 22671 1 180.0000771 15.1670000 2
22669 22668 22670 22672 1 180.0000771 15.1670000 2
22668 22670 22672 22673 1 180.0000771 15.1670000 2
22668 22670 22672 22674 1 180.0000771 15.1670000 2
22671 22670 22672 22673 1 180.0000771 15.1670000 2
22671 22670 22672 22674 1 180.0000771 15.1670000 2
22668 22672 22670 22671 4 180.0000771 4.6024000 2
22670 22672 22674 22675 1 180.0000771 15.1670000 2
22670 22672 22674 22676 1 180.0000771 15.1670000 2
22673 22672 22674 22675 1 180.0000771 15.1670000 2
22673 22672 22674 22676 1 180.0000771 15.1670000 2
22670 22674 22672 22673 4 180.0000771 4.6024000 2
22667 22674 22676 22677 4 180.0000771 4.6024000 2
22672 22674 22676 22677 1 180.0000771 15.1670000 2
22675 22674 22676 22677 1 180.0000771 15.1670000 2
22667 22676 22674 22672 1 180.0000771 15.1670000 2
22667 22676 22674 22675 1 180.0000771 15.1670000 2
22672 22676 22674 22675 4 180.0000771 4.6024000 2
22678 22679 22680 22681 1 180.0000771 15.1670000 2
22678 22679 22680 22682 1 180.0000771 15.1670000 2
22681 22679 22680 22682 4 180.0000771 4.6024000 2
22678 22679 22688 22680 4 180.0000771 4.6024000 2
22678 22679 22688 22686 1 180.0000771 15.1670000 2
22678 22679 22688 22689 1 180.0000771 15.1670000 2
22680 22679 22688 22686 1 180.0000771 15.1670000 2
22680 22679 22688 22689 1 180.0000771 15.1670000 2
22681 22680 22679 22688 1 180.0000771 15.1670000 2
22682 22680 22679 22688 1 180.0000771 15.1670000 2
22679 22680 22682 22683 1 180.0000771 15.1670000 2
22679 22680 22682 22684 1 180.0000771 15.1670000 2
22681 22680 22682 22683 1 180.0000771 15.1670000 2
22681 22680 22682 22684 1 180.0000771 15.1670000 2
22680 22682 22684 22685 1 180.0000771 15.1670000 2
22680 22682 22684 22686 1 180.0000771 15.1670000 2
22683 22682 22684 22685 1 180.0000771 15.1670000 2
22683 22682 22684 22686 1 180.0000771 15.1670000 2
22680 22684 22682 22683 4 180.0000771 4.6024000 2
22682 22684 22686 22687 1 180.0000771 15.1670000 2
22682 22684 22686 22688 1 180.0000771 15.1670000 2
22685 22684 22686 22687 1 180.0000771 15.1670000 2
22685 22684 22686 22688 1 180.0000771 15.1670000 2
22682 22686 22684 22685 4 180.0000771 4.6024000 2
22679 22686 22688 22689 4 180.0000771 4.6024000 2
22684 22686 22688 22689 1 180.0000771 15.1670000 2
22687 22686 22688 22689 1 180.0000771 15.1670000 2
22679 22688 22686 22684 1 180.0000771 15.1670000 2
22679 22688 22686 22687 1 180.0000771 15.1670000 2
22684 22688 22686 22687 4 180.0000771 4.6024000 2
22690 22691 22692 22693 1 180.0000771 15.1670000 2
22690 22691 22692 22694 1 180.0000771 15.1670000 2
22693 22691 22692 22694 4 180.0000771 4.6024000 2
22690 22691 22700 22692 4 180.0000771 4.6024000 2
22690 22691 22700 22698 1 180.0000771 15.1670000 2
22690 22691 22700 22701 1 180.0000771 15.1670000 2
22692 22691 22700 22698 1 180.0000771 15.1670000 2
22692 22691 22700 22701 1 180.0000771 15.1670000 2
22693 22692 22691 22700 1 180.0000771 15.1670000 2
22694 22692 22691 22700 1 180.0000771 15.1670000 2
22691 22692 22694 22695 1 180.0000771 15.1670000 2
22691 22692 22694 22696 1 180.0000771 15.1670000 2
22693 22692 22694 22695 1 180.0000771 15.1670000 2
22693 22692 22694 22696 1 180.0000771 15.1670000 2
22692 22694 22696 22697 1 180.0000771 15.1670000 2
22692 22694 22696 22698 1 180.0000771 15.1670000 2
22695 22694 22696 22697 1 180.0000771 15.1670000 2
22695 22694 22696 22698 1 180.0000771 15.1670000 2
22692 22696 22694 22695 4 180.0000771 4.6024000 2
22694 22696 22698 22699 1 180.0000771 15.1670000 2
22694 22696 22698 22700 1 180.0000771 15.1670000 2
22697 22696 22698 22699 1 180.0000771 15.1670000 2
22697 22696 22698 22700 1 180.0000771 15.1670000 2
22694 22698 22696 22697 4 180.0000771 4.6024000 2
22691 22698 22700 22701 4 180.0000771 4.6024000 2
22696 22698 22700 22701 1 180.0000771 15.1670000 2
22699 22698 22700 22701 1 180.0000771 15.1670000 2
22691 22700 22698 22696 1 180.0000771 15.1670000 2
22691 22700 22698 22699 1 180.0000771 15.1670000 2
22696 22700 22698 22699 4 180.0000771 4.6024000 2
22702 22703 22704 22705 1 180.0000771 15.1670000 2
22702 22703 22704 22706 1 180.0000771 15.1670000 2
22705 22703 22704 22706 4 180.0000771 4.6024000 2
22702 22703 22712 22704 4 180.0000771 4.6024000 2
22702 22703 22712 22710 1 180.0000771 15.1670000 2
22702 22703 22712 22713 1 180.0000771 15.1670000 2
22704 22703 22712 22710 1 180.0000771 15.1670000 2
22704 22703 22712 22713 1 180.0000771 15.1670000 2
22705 22704 22703 22712 1 180.0000771 15.1670000 2
22706 22704 22703 22712 1 180.0000771 15.1670000 2
22703 22704 22706 22707 1 180.0000771 15.1670000 2
22703 22704 22706 22708 1 180.0000771 15.1670000 2
22705 22704 22706 22707 1 180.0000771 15.1670000 2
22705 22704 22706 22708 1 180.0000771 15.1670000 2
22704 22706 22708 22709 1 180.0000771 15.1670000 2
22704 22706 22708 22710 1 180.0000771 15.1670000 2
22707 22706 22708 22709 1 180.0000771 15.1670000 2
22707 22706 22708 22710 1 180.0000771 15.1670000 2
22704 22708 22706 22707 4 180.0000771 4.6024000 2
22706 22708 22710 22711 1 180.0000771 15.1670000 2
22706 22708 22710 22712 1 180.0000771 15.1670000 2
22709 22708 22710 22711 1 180.0000771 15.1670000 2
22709 22708 22710 22712 1 180.0000771 15.1670000 2
22706 22710 22708 22709 4 180.0000771 4.6024000 2
22703 22710 22712 22713 4 180.0000771 4.6024000 2
22708 22710 22712 22713 1 180.0000771 15.1670000 2
22711 22710 22712 22713 1 180.0000771 15.1670000 2
22703 22712 22710 22708 1 180.0000771 15.1670000 2
22703 22712 22710 22711 1 180.0000771 15.1670000 2
22708 22712 22710 22711 4 180.0000771 4.6024000 2
22714 22715 22716 22717 1 180.0000771 15.1670000 2
22714 22715 22716 22718 1 180.0000771 15.1670000 2
22717 22715 22716 22718 4 180.0000771 4.6024000 2
22714 22715 22724 22716 4 180.0000771 4.6024000 2
22714 22715 22724 22722 1 180.0000771 15.1670000 2
22714 22715 22724 22725 1 180.0000771 15.1670000 2
22716 22715 22724 22722 1 180.0000771 15.1670000 2
22716 22715 22724 22725 1 180.0000771 15.1670000 2
22717 22716 22715 22724 1 180.0000771 15.1670000 2
22718 22716 22715 22724 1 180.0000771 15.1670000 2
22715 22716 22718 22719 1 180.0000771 15.1670000 2
22715 22716 22718 22720 1 180.0000771 15.1670000 2
22717 22716 22718 22719 1 180.0000771 15.1670000 2
22717 22716 22718 22720 1 180.0000771 15.1670000 2
22716 22718 22720 22721 1 180.0000771 15.1670000 2
22716 22718 22720 22722 1 180.0000771 15.1670000 2
22719 22718 22720 22721 1 180.0000771 15.1670000 2
22719 22718 22720 22722 1 180.0000771 15.1670000 2
22716 22720 22718 22719 4 180.0000771 4.6024000 2
22718 22720 22722 22723 1 180.0000771 15.1670000 2
22718 22720 22722 22724 1 180.0000771 15.1670000 2
22721 22720 22722 22723 1 180.0000771 15.1670000 2
22721 22720 22722 22724 1 180.0000771 15.1670000 2
22718 22722 22720 22721 4 180.0000771 4.6024000 2
22715 22722 22724 22725 4 180.0000771 4.6024000 2
22720 22722 22724 22725 1 180.0000771 15.1670000 2
22723 22722 22724 22725 1 180.0000771 15.1670000 2
22715 22724 22722 22720 1 180.0000771 15.1670000 2
22715 22724 22722 22723 1 180.0000771 15.1670000 2
22720 22724 22722 22723 4 180.0000771 4.6024000 2
22726 22727 22728 22729 1 180.0000771 15.1670000 2
22726 22727 22728 22730 1 180.0000771 15.1670000 2
22729 22727 22728 22730 4 180.0000771 4.6024000 2
22726 22727 22736 22728 4 180.0000771 4.6024000 2
22726 22727 22736 22734 1 180.0000771 15.1670000 2
22726 22727 22736 22737 1 180.0000771 15.1670000 2
22728 22727 22736 22734 1 180.0000771 15.1670000 2
22728 22727 22736 22737 1 180.0000771 15.1670000 2
22729 22728 22727 22736 1 180.0000771 15.1670000 2
22730 22728 22727 22736 1 180.0000771 15.1670000 2
22727 22728 22730 22731 1 180.0000771 15.1670000 2
22727 22728 22730 22732 1 180.0000771 15.1670000 2
22729 22728 22730 22731 1 180.0000771 15.1670000 2
22729 22728 22730 22732 1 180.0000771 15.1670000 2
22728 22730 22732 22733 1 180.0000771 15.1670000 2
22728 22730 22732 22734 1 180.0000771 15.1670000 2
22731 22730 22732 22733 1 180.0000771 15.1670000 2
22731 22730 22732 22734 1 180.0000771 15.1670000 2
22728 22732 22730 22731 4 180.0000771 4.6024000 2
22730 22732 22734 22735 1 180.0000771 15.1670000 2
22730 22732 22734 22736 1 180.0000771 15.1670000 2
22733 22732 22734 22735 1 180.0000771 15.1670000 2
22733 22732 22734 22736 1 180.0000771 15.1670000 2
22730 22734 22732 22733 4 180.0000771 4.6024000 2
22727 22734 22736 22737 4 180.0000771 4.6024000 2
22732 22734 22736 22737 1 180.0000771 15.1670000 2
22735 22734 22736 22737 1 180.0000771 15.1670000 2
22727 22736 22734 22732 1 180.0000771 15.1670000 2
22727 22736 22734 22735 1 180.0000771 15.1670000 2
22732 22736 22734 22735 4 180.0000771 4.6024000 2
22738 22739 22740 22741 1 180.0000771 15.1670000 2
22738 22739 22740 22742 1 180.0000771 15.1670000 2
22741 22739 22740 22742 4 180.0000771 4.6024000 2
22738 22739 22748 22740 4 180.0000771 4.6024000 2
22738 22739 22748 22746 1 180.0000771 15.1670000 2
22738 22739 22748 22749 1 180.0000771 15.1670000 2
22740 22739 22748 22746 1 180.0000771 15.1670000 2
22740 22739 22748 22749 1 180.0000771 15.1670000 2
22741 22740 22739 22748 1 180.0000771 15.1670000 2
22742 22740 22739 22748 1 180.0000771 15.1670000 2
22739 22740 22742 22743 1 180.0000771 15.1670000 2
22739 22740 22742 22744 1 180.0000771 15.1670000 2
22741 22740 22742 22743 1 180.0000771 15.1670000 2
22741 22740 22742 22744 1 180.0000771 15.1670000 2
22740 22742 22744 22745 1 180.0000771 15.1670000 2
22740 22742 22744 22746 1 180.0000771 15.1670000 2
22743 22742 22744 22745 1 180.0000771 15.1670000 2
22743 22742 22744 22746 1 180.0000771 15.1670000 2
22740 22744 22742 22743 4 180.0000771 4.6024000 2
22742 22744 22746 22747 1 180.0000771 15.1670000 2
22742 22744 22746 22748 1 180.0000771 15.1670000 2
22745 22744 22746 22747 1 180.0000771 15.1670000 2
22745 22744 22746 22748 1 180.0000771 15.1670000 2
22742 22746 22744 22745 4 180.0000771 4.6024000 2
22739 22746 22748 22749 4 180.0000771 4.6024000 2
22744 22746 22748 22749 1 180.0000771 15.1670000 2
22747 22746 22748 22749 1 180.0000771 15.1670000 2
22739 22748 22746 22744 1 180.0000771 15.1670000 2
22739 22748 22746 22747 1 180.0000771 15.1670000 2
22744 22748 22746 22747 4 180.0000771 4.6024000 2
22750 22751 22752 22753 1 180.0000771 15.1670000 2
22750 22751 22752 22754 1 180.0000771 15.1670000 2
22753 22751 22752 22754 4 180.0000771 4.6024000 2
22750 22751 22760 22752 4 180.0000771 4.6024000 2
22750 22751 22760 22758 1 180.0000771 15.1670000 2
22750 22751 22760 22761 1 180.0000771 15.1670000 2
22752 22751 22760 22758 1 180.0000771 15.1670000 2
22752 22751 22760 22761 1 180.0000771 15.1670000 2
22753 22752 22751 22760 1 180.0000771 15.1670000 2
22754 22752 22751 22760 1 180.0000771 15.1670000 2
22751 22752 22754 22755 1 180.0000771 15.1670000 2
22751 22752 22754 22756 1 180.0000771 15.1670000 2
22753 22752 22754 22755 1 180.0000771 15.1670000 2
22753 22752 22754 22756 1 180.0000771 15.1670000 2
22752 22754 22756 22757 1 180.0000771 15.1670000 2
22752 22754 22756 22758 1 180.0000771 15.1670000 2
22755 22754 22756 22757 1 180.0000771 15.1670000 2
22755 22754 22756 22758 1 180.0000771 15.1670000 2
22752 22756 22754 22755 4 180.0000771 4.6024000 2
22754 22756 22758 22759 1 180.0000771 15.1670000 2
22754 22756 22758 22760 1 180.0000771 15.1670000 2
22757 22756 22758 22759 1 180.0000771 15.1670000 2
22757 22756 22758 22760 1 180.0000771 15.1670000 2
22754 22758 22756 22757 4 180.0000771 4.6024000 2
22751 22758 22760 22761 4 180.0000771 4.6024000 2
22756 22758 22760 22761 1 180.0000771 15.1670000 2
22759 22758 22760 22761 1 180.0000771 15.1670000 2
22751 22760 22758 22756 1 180.0000771 15.1670000 2
22751 22760 22758 22759 1 180.0000771 15.1670000 2
22756 22760 22758 22759 4 180.0000771 4.6024000 2
22762 22763 22764 22765 1 180.0000771 15.1670000 2
22762 22763 22764 22766 1 180.0000771 15.1670000 2
22765 22763 22764 22766 4 180.0000771 4.6024000 2
22762 22763 22772 22764 4 180.0000771 4.6024000 2
22762 22763 22772 22770 1 180.0000771 15.1670000 2
22762 22763 22772 22773 1 180.0000771 15.1670000 2
22764 22763 22772 22770 1 180.0000771 15.1670000 2
22764 22763 22772 22773 1 180.0000771 15.1670000 2
22765 22764 22763 22772 1 180.0000771 15.1670000 2
22766 22764 22763 22772 1 180.0000771 15.1670000 2
22763 22764 22766 22767 1 180.0000771 15.1670000 2
22763 22764 22766 22768 1 180.0000771 15.1670000 2
22765 22764 22766 22767 1 180.0000771 15.1670000 2
22765 22764 22766 22768 1 180.0000771 15.1670000 2
22764 22766 22768 22769 1 180.0000771 15.1670000 2
22764 22766 22768 22770 1 180.0000771 15.1670000 2
22767 22766 22768 22769 1 180.0000771 15.1670000 2
22767 22766 22768 22770 1 180.0000771 15.1670000 2
22764 22768 22766 22767 4 180.0000771 4.6024000 2
22766 22768 22770 22771 1 180.0000771 15.1670000 2
22766 22768 22770 22772 1 180.0000771 15.1670000 2
22769 22768 22770 22771 1 180.0000771 15.1670000 2
22769 22768 22770 22772 1 180.0000771 15.1670000 2
22766 22770 22768 22769 4 180.0000771 4.6024000 2
22763 22770 22772 22773 4 180.0000771 4.6024000 2
22768 22770 22772 22773 1 180.0000771 15.1670000 2
22771 22770 22772 22773 1 180.0000771 15.1670000 2
22763 22772 22770 22768 1 180.0000771 15.1670000 2
22763 22772 22770 22771 1 180.0000771 15.1670000 2
22768 22772 22770 22771 4 180.0000771 4.6024000 2
22774 22775 22776 22777 1 180.0000771 15.1670000 2
22774 22775 22776 22778 1 180.0000771 15.1670000 2
22777 22775 22776 22778 4 180.0000771 4.6024000 2
22774 22775 22784 22776 4 180.0000771 4.6024000 2
22774 22775 22784 22782 1 180.0000771 15.1670000 2
22774 22775 22784 22785 1 180.0000771 15.1670000 2
22776 22775 22784 22782 1 180.0000771 15.1670000 2
22776 22775 22784 22785 1 180.0000771 15.1670000 2
22777 22776 22775 22784 1 180.0000771 15.1670000 2
22778 22776 22775 22784 1 180.0000771 15.1670000 2
22775 22776 22778 22779 1 180.0000771 15.1670000 2
22775 22776 22778 22780 1 180.0000771 15.1670000 2
22777 22776 22778 22779 1 180.0000771 15.1670000 2
22777 22776 22778 22780 1 180.0000771 15.1670000 2
22776 22778 22780 22781 1 180.0000771 15.1670000 2
22776 22778 22780 22782 1 180.0000771 15.1670000 2
22779 22778 22780 22781 1 180.0000771 15.1670000 2
22779 22778 22780 22782 1 180.0000771 15.1670000 2
22776 22780 22778 22779 4 180.0000771 4.6024000 2
22778 22780 22782 22783 1 180.0000771 15.1670000 2
22778 22780 22782 22784 1 180.0000771 15.1670000 2
22781 22780 22782 22783 1 180.0000771 15.1670000 2
22781 22780 22782 22784 1 180.0000771 15.1670000 2
22778 22782 22780 22781 4 180.0000771 4.6024000 2
22775 22782 22784 22785 4 180.0000771 4.6024000 2
22780 22782 22784 22785 1 180.0000771 15.1670000 2
22783 22782 22784 22785 1 180.0000771 15.1670000 2
22775 22784 22782 22780 1 180.0000771 15.1670000 2
22775 22784 22782 22783 1 180.0000771 15.1670000 2
22780 22784 22782 22783 4 180.0000771 4.6024000 2
22786 22787 22788 22789 1 180.0000771 15.1670000 2
22786 22787 22788 22790 1 180.0000771 15.1670000 2
22789 22787 22788 22790 4 180.0000771 4.6024000 2
22786 22787 22796 22788 4 180.0000771 4.6024000 2
22786 22787 22796 22794 1 180.0000771 15.1670000 2
22786 22787 22796 22797 1 180.0000771 15.1670000 2
22788 22787 22796 22794 1 180.0000771 15.1670000 2
22788 22787 22796 22797 1 180.0000771 15.1670000 2
22789 22788 22787 22796 1 180.0000771 15.1670000 2
22790 22788 22787 22796 1 180.0000771 15.1670000 2
22787 22788 22790 22791 1 180.0000771 15.1670000 2
22787 22788 22790 22792 1 180.0000771 15.1670000 2
22789 22788 22790 22791 1 180.0000771 15.1670000 2
22789 22788 22790 22792 1 180.0000771 15.1670000 2
22788 22790 22792 22793 1 180.0000771 15.1670000 2
22788 22790 22792 22794 1 180.0000771 15.1670000 2
22791 22790 22792 22793 1 180.0000771 15.1670000 2
22791 22790 22792 22794 1 180.0000771 15.1670000 2
22788 22792 22790 22791 4 180.0000771 4.6024000 2
22790 22792 22794 22795 1 180.0000771 15.1670000 2
22790 22792 22794 22796 1 180.0000771 15.1670000 2
22793 22792 22794 22795 1 180.0000771 15.1670000 2
22793 22792 22794 22796 1 180.0000771 15.1670000 2
22790 22794 22792 22793 4 180.0000771 4.6024000 2
22787 22794 22796 22797 4 180.0000771 4.6024000 2
22792 22794 22796 22797 1 180.0000771 15.1670000 2
22795 22794 22796 22797 1 180.0000771 15.1670000 2
22787 22796 22794 22792 1 180.0000771 15.1670000 2
22787 22796 22794 22795 1 180.0000771 15.1670000 2
22792 22796 22794 22795 4 180.0000771 4.6024000 2
22798 22799 22800 22801 1 180.0000771 15.1670000 2
22798 22799 22800 22802 1 180.0000771 15.1670000 2
22801 22799 22800 22802 4 180.0000771 4.6024000 2
22798 22799 22808 22800 4 180.0000771 4.6024000 2
22798 22799 22808 22806 1 180.0000771 15.1670000 2
22798 22799 22808 22809 1 180.0000771 15.1670000 2
22800 22799 22808 22806 1 180.0000771 15.1670000 2
22800 22799 22808 22809 1 180.0000771 15.1670000 2
22801 22800 22799 22808 1 180.0000771 15.1670000 2
22802 22800 22799 22808 1 180.0000771 15.1670000 2
22799 22800 22802 22803 1 180.0000771 15.1670000 2
22799 22800 22802 22804 1 180.0000771 15.1670000 2
22801 22800 22802 22803 1 180.0000771 15.1670000 2
22801 22800 22802 22804 1 180.0000771 15.1670000 2
22800 22802 22804 22805 1 180.0000771 15.1670000 2
22800 22802 22804 22806 1 180.0000771 15.1670000 2
22803 22802 22804 22805 1 180.0000771 15.1670000 2
22803 22802 22804 22806 1 180.0000771 15.1670000 2
22800 22804 22802 22803 4 180.0000771 4.6024000 2
22802 22804 22806 22807 1 180.0000771 15.1670000 2
22802 22804 22806 22808 1 180.0000771 15.1670000 2
22805 22804 22806 22807 1 180.0000771 15.1670000 2
22805 22804 22806 22808 1 180.0000771 15.1670000 2
22802 22806 22804 22805 4 180.0000771 4.6024000 2
22799 22806 22808 22809 4 180.0000771 4.6024000 2
22804 22806 22808 22809 1 180.0000771 15.1670000 2
22807 22806 22808 22809 1 180.0000771 15.1670000 2
22799 22808 22806 22804 1 180.0000771 15.1670000 2
22799 22808 22806 22807 1 180.0000771 15.1670000 2
22804 22808 22806 22807 4 180.0000771 4.6024000 2
22810 22811 22812 22813 1 180.0000771 15.1670000 2
22810 22811 22812 22814 1 180.0000771 15.1670000 2
22813 22811 22812 22814 4 180.0000771 4.6024000 2
22810 22811 22820 22812 4 180.0000771 4.6024000 2
22810 22811 22820 22818 1 180.0000771 15.1670000 2
22810 22811 22820 22821 1 180.0000771 15.1670000 2
22812 22811 22820 22818 1 180.0000771 15.1670000 2
22812 22811 22820 22821 1 180.0000771 15.1670000 2
22813 22812 22811 22820 1 180.0000771 15.1670000 2
22814 22812 22811 22820 1 180.0000771 15.1670000 2
22811 22812 22814 22815 1 180.0000771 15.1670000 2
22811 22812 22814 22816 1 180.0000771 15.1670000 2
22813 22812 22814 22815 1 180.0000771 15.1670000 2
22813 22812 22814 22816 1 180.0000771 15.1670000 2
22812 22814 22816 22817 1 180.0000771 15.1670000 2
22812 22814 22816 22818 1 180.0000771 15.1670000 2
22815 22814 22816 22817 1 180.0000771 15.1670000 2
22815 22814 22816 22818 1 180.0000771 15.1670000 2
22812 22816 22814 22815 4 180.0000771 4.6024000 2
22814 22816 22818 22819 1 180.0000771 15.1670000 2
22814 22816 22818 22820 1 180.0000771 15.1670000 2
22817 22816 22818 22819 1 180.0000771 15.1670000 2
22817 22816 22818 22820 1 180.0000771 15.1670000 2
22814 22818 22816 22817 4 180.0000771 4.6024000 2
22811 22818 22820 22821 4 180.0000771 4.6024000 2
22816 22818 22820 22821 1 180.0000771 15.1670000 2
22819 22818 22820 22821 1 180.0000771 15.1670000 2
22811 22820 22818 22816 1 180.0000771 15.1670000 2
22811 22820 22818 22819 1 180.0000771 15.1670000 2
22816 22820 22818 22819 4 180.0000771 4.6024000 2
22822 22823 22824 22825 1 180.0000771 15.1670000 2
22822 22823 22824 22826 1 180.0000771 15.1670000 2
22825 22823 22824 22826 4 180.0000771 4.6024000 2
22822 22823 22832 22824 4 180.0000771 4.6024000 2
22822 22823 22832 22830 1 180.0000771 15.1670000 2
22822 22823 22832 22833 1 180.0000771 15.1670000 2
22824 22823 22832 22830 1 180.0000771 15.1670000 2
22824 22823 22832 22833 1 180.0000771 15.1670000 2
22825 22824 22823 22832 1 180.0000771 15.1670000 2
22826 22824 22823 22832 1 180.0000771 15.1670000 2
22823 22824 22826 22827 1 180.0000771 15.1670000 2
22823 22824 22826 22828 1 180.0000771 15.1670000 2
22825 22824 22826 22827 1 180.0000771 15.1670000 2
22825 22824 22826 22828 1 180.0000771 15.1670000 2
22824 22826 22828 22829 1 180.0000771 15.1670000 2
22824 22826 22828 22830 1 180.0000771 15.1670000 2
22827 22826 22828 22829 1 180.0000771 15.1670000 2
22827 22826 22828 22830 1 180.0000771 15.1670000 2
22824 22828 22826 22827 4 180.0000771 4.6024000 2
22826 22828 22830 22831 1 180.0000771 15.1670000 2
22826 22828 22830 22832 1 180.0000771 15.1670000 2
22829 22828 22830 22831 1 180.0000771 15.1670000 2
22829 22828 22830 22832 1 180.0000771 15.1670000 2
22826 22830 22828 22829 4 180.0000771 4.6024000 2
22823 22830 22832 22833 4 180.0000771 4.6024000 2
22828 22830 22832 22833 1 180.0000771 15.1670000 2
22831 22830 22832 22833 1 180.0000771 15.1670000 2
22823 22832 22830 22828 1 180.0000771 15.1670000 2
22823 22832 22830 22831 1 180.0000771 15.1670000 2
22828 22832 22830 22831 4 180.0000771 4.6024000 2
22834 22835 22836 22837 1 180.0000771 15.1670000 2
22834 22835 22836 22838 1 180.0000771 15.1670000 2
22837 22835 22836 22838 4 180.0000771 4.6024000 2
22834 22835 22844 22836 4 180.0000771 4.6024000 2
22834 22835 22844 22842 1 180.0000771 15.1670000 2
22834 22835 22844 22845 1 180.0000771 15.1670000 2
22836 22835 22844 22842 1 180.0000771 15.1670000 2
22836 22835 22844 22845 1 180.0000771 15.1670000 2
22837 22836 22835 22844 1 180.0000771 15.1670000 2
22838 22836 22835 22844 1 180.0000771 15.1670000 2
22835 22836 22838 22839 1 180.0000771 15.1670000 2
22835 22836 22838 22840 1 180.0000771 15.1670000 2
22837 22836 22838 22839 1 180.0000771 15.1670000 2
22837 22836 22838 22840 1 180.0000771 15.1670000 2
22836 22838 22840 22841 1 180.0000771 15.1670000 2
22836 22838 22840 22842 1 180.0000771 15.1670000 2
22839 22838 22840 22841 1 180.0000771 15.1670000 2
22839 22838 22840 22842 1 180.0000771 15.1670000 2
22836 22840 22838 22839 4 180.0000771 4.6024000 2
22838 22840 22842 22843 1 180.0000771 15.1670000 2
22838 22840 22842 22844 1 180.0000771 15.1670000 2
22841 22840 22842 22843 1 180.0000771 15.1670000 2
22841 22840 22842 22844 1 180.0000771 15.1670000 2
22838 22842 22840 22841 4 180.0000771 4.6024000 2
22835 22842 22844 22845 4 180.0000771 4.6024000 2
22840 22842 22844 22845 1 180.0000771 15.1670000 2
22843 22842 22844 22845 1 180.0000771 15.1670000 2
22835 22844 22842 22840 1 180.0000771 15.1670000 2
22835 22844 22842 22843 1 180.0000771 15.1670000 2
22840 22844 22842 22843 4 180.0000771 4.6024000 2
22846 22847 22848 22849 1 180.0000771 15.1670000 2
22846 22847 22848 22850 1 180.0000771 15.1670000 2
22849 22847 22848 22850 4 180.0000771 4.6024000 2
22846 22847 22856 22848 4 180.0000771 4.6024000 2
22846 22847 22856 22854 1 180.0000771 15.1670000 2
22846 22847 22856 22857 1 180.0000771 15.1670000 2
22848 22847 22856 22854 1 180.0000771 15.1670000 2
22848 22847 22856 22857 1 180.0000771 15.1670000 2
22849 22848 22847 22856 1 180.0000771 15.1670000 2
22850 22848 22847 22856 1 180.0000771 15.1670000 2
22847 22848 22850 22851 1 180.0000771 15.1670000 2
22847 22848 22850 22852 1 180.0000771 15.1670000 2
22849 22848 22850 22851 1 180.0000771 15.1670000 2
22849 22848 22850 22852 1 180.0000771 15.1670000 2
22848 22850 22852 22853 1 180.0000771 15.1670000 2
22848 22850 22852 22854 1 180.0000771 15.1670000 2
22851 22850 22852 22853 1 180.0000771 15.1670000 2
22851 22850 22852 22854 1 180.0000771 15.1670000 2
22848 22852 22850 22851 4 180.0000771 4.6024000 2
22850 22852 22854 22855 1 180.0000771 15.1670000 2
22850 22852 22854 22856 1 180.0000771 15.1670000 2
22853 22852 22854 22855 1 180.0000771 15.1670000 2
22853 22852 22854 22856 1 180.0000771 15.1670000 2
22850 22854 22852 22853 4 180.0000771 4.6024000 2
22847 22854 22856 22857 4 180.0000771 4.6024000 2
22852 22854 22856 22857 1 180.0000771 15.1670000 2
22855 22854 22856 22857 1 180.0000771 15.1670000 2
22847 22856 22854 22852 1 180.0000771 15.1670000 2
22847 22856 22854 22855 1 180.0000771 15.1670000 2
22852 22856 22854 22855 4 180.0000771 4.6024000 2
22858 22859 22860 22861 1 180.0000771 15.1670000 2
22858 22859 22860 22862 1 180.0000771 15.1670000 2
22861 22859 22860 22862 4 180.0000771 4.6024000 2
22858 22859 22868 22860 4 180.0000771 4.6024000 2
22858 22859 22868 22866 1 180.0000771 15.1670000 2
22858 22859 22868 22869 1 180.0000771 15.1670000 2
22860 22859 22868 22866 1 180.0000771 15.1670000 2
22860 22859 22868 22869 1 180.0000771 15.1670000 2
22861 22860 22859 22868 1 180.0000771 15.1670000 2
22862 22860 22859 22868 1 180.0000771 15.1670000 2
22859 22860 22862 22863 1 180.0000771 15.1670000 2
22859 22860 22862 22864 1 180.0000771 15.1670000 2
22861 22860 22862 22863 1 180.0000771 15.1670000 2
22861 22860 22862 22864 1 180.0000771 15.1670000 2
22860 22862 22864 22865 1 180.0000771 15.1670000 2
22860 22862 22864 22866 1 180.0000771 15.1670000 2
22863 22862 22864 22865 1 180.0000771 15.1670000 2
22863 22862 22864 22866 1 180.0000771 15.1670000 2
22860 22864 22862 22863 4 180.0000771 4.6024000 2
22862 22864 22866 22867 1 180.0000771 15.1670000 2
22862 22864 22866 22868 1 180.0000771 15.1670000 2
22865 22864 22866 22867 1 180.0000771 15.1670000 2
22865 22864 22866 22868 1 180.0000771 15.1670000 2
22862 22866 22864 22865 4 180.0000771 4.6024000 2
22859 22866 22868 22869 4 180.0000771 4.6024000 2
22864 22866 22868 22869 1 180.0000771 15.1670000 2
22867 22866 22868 22869 1 180.0000771 15.1670000 2
22859 22868 22866 22864 1 180.0000771 15.1670000 2
22859 22868 22866 22867 1 180.0000771 15.1670000 2
22864 22868 22866 22867 4 180.0000771 4.6024000 2
22870 22871 22872 22873 1 180.0000771 15.1670000 2
22870 22871 22872 22874 1 180.0000771 15.1670000 2
22873 22871 22872 22874 4 180.0000771 4.6024000 2
22870 22871 22880 22872 4 180.0000771 4.6024000 2
22870 22871 22880 22878 1 180.0000771 15.1670000 2
22870 22871 22880 22881 1 180.0000771 15.1670000 2
22872 22871 22880 22878 1 180.0000771 15.1670000 2
22872 22871 22880 22881 1 180.0000771 15.1670000 2
22873 22872 22871 22880 1 180.0000771 15.1670000 2
22874 22872 22871 22880 1 180.0000771 15.1670000 2
22871 22872 22874 22875 1 180.0000771 15.1670000 2
22871 22872 22874 22876 1 180.0000771 15.1670000 2
22873 22872 22874 22875 1 180.0000771 15.1670000 2
22873 22872 22874 22876 1 180.0000771 15.1670000 2
22872 22874 22876 22877 1 180.0000771 15.1670000 2
22872 22874 22876 22878 1 180.0000771 15.1670000 2
22875 22874 22876 22877 1 180.0000771 15.1670000 2
22875 22874 22876 22878 1 180.0000771 15.1670000 2
22872 22876 22874 22875 4 180.0000771 4.6024000 2
22874 22876 22878 22879 1 180.0000771 15.1670000 2
22874 22876 22878 22880 1 180.0000771 15.1670000 2
22877 22876 22878 22879 1 180.0000771 15.1670000 2
22877 22876 22878 22880 1 180.0000771 15.1670000 2
22874 22878 22876 22877 4 180.0000771 4.6024000 2
22871 22878 22880 22881 4 180.0000771 4.6024000 2
22876 22878 22880 22881 1 180.0000771 15.1670000 2
22879 22878 22880 22881 1 180.0000771 15.1670000 2
22871 22880 22878 22876 1 180.0000771 15.1670000 2
22871 22880 22878 22879 1 180.0000771 15.1670000 2
22876 22880 22878 22879 4 180.0000771 4.6024000 2
22882 22883 22884 22885 1 180.0000771 15.1670000 2
22882 22883 22884 22886 1 180.0000771 15.1670000 2
22885 22883 22884 22886 4 180.0000771 4.6024000 2
22882 22883 22892 22884 4 180.0000771 4.6024000 2
22882 22883 22892 22890 1 180.0000771 15.1670000 2
22882 22883 22892 22893 1 180.0000771 15.1670000 2
22884 22883 22892 22890 1 180.0000771 15.1670000 2
22884 22883 22892 22893 1 180.0000771 15.1670000 2
22885 22884 22883 22892 1 180.0000771 15.1670000 2
22886 22884 22883 22892 1 180.0000771 15.1670000 2
22883 22884 22886 22887 1 180.0000771 15.1670000 2
22883 22884 22886 22888 1 180.0000771 15.1670000 2
22885 22884 22886 22887 1 180.0000771 15.1670000 2
22885 22884 22886 22888 1 180.0000771 15.1670000 2
22884 22886 22888 22889 1 180.0000771 15.1670000 2
22884 22886 22888 22890 1 180.0000771 15.1670000 2
22887 22886 22888 22889 1 180.0000771 15.1670000 2
22887 22886 22888 22890 1 180.0000771 15.1670000 2
22884 22888 22886 22887 4 180.0000771 4.6024000 2
22886 22888 22890 22891 1 180.0000771 15.1670000 2
22886 22888 22890 22892 1 180.0000771 15.1670000 2
22889 22888 22890 22891 1 180.0000771 15.1670000 2
22889 22888 22890 22892 1 180.0000771 15.1670000 2
22886 22890 22888 22889 4 180.0000771 4.6024000 2
22883 22890 22892 22893 4 180.0000771 4.6024000 2
22888 22890 22892 22893 1 180.0000771 15.1670000 2
22891 22890 22892 22893 1 180.0000771 15.1670000 2
22883 22892 22890 22888 1 180.0000771 15.1670000 2
22883 22892 22890 22891 1 180.0000771 15.1670000 2
22888 22892 22890 22891 4 180.0000771 4.6024000 2
22894 22895 22896 22897 1 180.0000771 15.1670000 2
22894 22895 22896 22898 1 180.0000771 15.1670000 2
22897 22895 22896 22898 4 180.0000771 4.6024000 2
22894 22895 22904 22896 4 180.0000771 4.6024000 2
22894 22895 22904 22902 1 180.0000771 15.1670000 2
22894 22895 22904 22905 1 180.0000771 15.1670000 2
22896 22895 22904 22902 1 180.0000771 15.1670000 2
22896 22895 22904 22905 1 180.0000771 15.1670000 2
22897 22896 22895 22904 1 180.0000771 15.1670000 2
22898 22896 22895 22904 1 180.0000771 15.1670000 2
22895 22896 22898 22899 1 180.0000771 15.1670000 2
22895 22896 22898 22900 1 180.0000771 15.1670000 2
22897 22896 22898 22899 1 180.0000771 15.1670000 2
22897 22896 22898 22900 1 180.0000771 15.1670000 2
22896 22898 22900 22901 1 180.0000771 15.1670000 2
22896 22898 22900 22902 1 180.0000771 15.1670000 2
22899 22898 22900 22901 1 180.0000771 15.1670000 2
22899 22898 22900 22902 1 180.0000771 15.1670000 2
22896 22900 22898 22899 4 180.0000771 4.6024000 2
22898 22900 22902 22903 1 180.0000771 15.1670000 2
22898 22900 22902 22904 1 180.0000771 15.1670000 2
22901 22900 22902 22903 1 180.0000771 15.1670000 2
22901 22900 22902 22904 1 180.0000771 15.1670000 2
22898 22902 22900 22901 4 180.0000771 4.6024000 2
22895 22902 22904 22905 4 180.0000771 4.6024000 2
22900 22902 22904 22905 1 180.0000771 15.1670000 2
22903 22902 22904 22905 1 180.0000771 15.1670000 2
22895 22904 22902 22900 1 180.0000771 15.1670000 2
22895 22904 22902 22903 1 180.0000771 15.1670000 2
22900 22904 22902 22903 4 180.0000771 4.6024000 2
22906 22907 22908 22909 1 180.0000771 15.1670000 2
22906 22907 22908 22910 1 180.0000771 15.1670000 2
22909 22907 22908 22910 4 180.0000771 4.6024000 2
22906 22907 22916 22908 4 180.0000771 4.6024000 2
22906 22907 22916 22914 1 180.0000771 15.1670000 2
22906 22907 22916 22917 1 180.0000771 15.1670000 2
22908 22907 22916 22914 1 180.0000771 15.1670000 2
22908 22907 22916 22917 1 180.0000771 15.1670000 2
22909 22908 22907 22916 1 180.0000771 15.1670000 2
22910 22908 22907 22916 1 180.0000771 15.1670000 2
22907 22908 22910 22911 1 180.0000771 15.1670000 2
22907 22908 22910 22912 1 180.0000771 15.1670000 2
22909 22908 22910 22911 1 180.0000771 15.1670000 2
22909 22908 22910 22912 1 180.0000771 15.1670000 2
22908 22910 22912 22913 1 180.0000771 15.1670000 2
22908 22910 22912 22914 1 180.0000771 15.1670000 2
22911 22910 22912 22913 1 180.0000771 15.1670000 2
22911 22910 22912 22914 1 180.0000771 15.1670000 2
22908 22912 22910 22911 4 180.0000771 4.6024000 2
22910 22912 22914 22915 1 180.0000771 15.1670000 2
22910 22912 22914 22916 1 180.0000771 15.1670000 2
22913 22912 22914 22915 1 180.0000771 15.1670000 2
22913 22912 22914 22916 1 180.0000771 15.1670000 2
22910 22914 22912 22913 4 180.0000771 4.6024000 2
22907 22914 22916 22917 4 180.0000771 4.6024000 2
22912 22914 22916 22917 1 180.0000771 15.1670000 2
22915 22914 22916 22917 1 180.0000771 15.1670000 2
22907 22916 22914 22912 1 180.0000771 15.1670000 2
22907 22916 22914 22915 1 180.0000771 15.1670000 2
22912 22916 22914 22915 4 180.0000771 4.6024000 2
22918 22919 22920 22921 1 180.0000771 15.1670000 2
22918 22919 22920 22922 1 180.0000771 15.1670000 2
22921 22919 22920 22922 4 180.0000771 4.6024000 2
22918 22919 22928 22920 4 180.0000771 4.6024000 2
22918 22919 22928 22926 1 180.0000771 15.1670000 2
22918 22919 22928 22929 1 180.0000771 15.1670000 2
22920 22919 22928 22926 1 180.0000771 15.1670000 2
22920 22919 22928 22929 1 180.0000771 15.1670000 2
22921 22920 22919 22928 1 180.0000771 15.1670000 2
22922 22920 22919 22928 1 180.0000771 15.1670000 2
22919 22920 22922 22923 1 180.0000771 15.1670000 2
22919 22920 22922 22924 1 180.0000771 15.1670000 2
22921 22920 22922 22923 1 180.0000771 15.1670000 2
22921 22920 22922 22924 1 180.0000771 15.1670000 2
22920 22922 22924 22925 1 180.0000771 15.1670000 2
22920 22922 22924 22926 1 180.0000771 15.1670000 2
22923 22922 22924 22925 1 180.0000771 15.1670000 2
22923 22922 22924 22926 1 180.0000771 15.1670000 2
22920 22924 22922 22923 4 180.0000771 4.6024000 2
22922 22924 22926 22927 1 180.0000771 15.1670000 2
22922 22924 22926 22928 1 180.0000771 15.1670000 2
22925 22924 22926 22927 1 180.0000771 15.1670000 2
22925 22924 22926 22928 1 180.0000771 15.1670000 2
22922 22926 22924 22925 4 180.0000771 4.6024000 2
22919 22926 22928 22929 4 180.0000771 4.6024000 2
22924 22926 22928 22929 1 180.0000771 15.1670000 2
22927 22926 22928 22929 1 180.0000771 15.1670000 2
22919 22928 22926 22924 1 180.0000771 15.1670000 2
22919 22928 22926 22927 1 180.0000771 15.1670000 2
22924 22928 22926 22927 4 180.0000771 4.6024000 2
22930 22931 22932 22933 1 180.0000771 15.1670000 2
22930 22931 22932 22934 1 180.0000771 15.1670000 2
22933 22931 22932 22934 4 180.0000771 4.6024000 2
22930 22931 22940 22932 4 180.0000771 4.6024000 2
22930 22931 22940 22938 1 180.0000771 15.1670000 2
22930 22931 22940 22941 1 180.0000771 15.1670000 2
22932 22931 22940 22938 1 180.0000771 15.1670000 2
22932 22931 22940 22941 1 180.0000771 15.1670000 2
22933 22932 22931 22940 1 180.0000771 15.1670000 2
22934 22932 22931 22940 1 180.0000771 15.1670000 2
22931 22932 22934 22935 1 180.0000771 15.1670000 2
22931 22932 22934 22936 1 180.0000771 15.1670000 2
22933 22932 22934 22935 1 180.0000771 15.1670000 2
22933 22932 22934 22936 1 180.0000771 15.1670000 2
22932 22934 22936 22937 1 180.0000771 15.1670000 2
22932 22934 22936 22938 1 180.0000771 15.1670000 2
22935 22934 22936 22937 1 180.0000771 15.1670000 2
22935 22934 22936 22938 1 180.0000771 15.1670000 2
22932 22936 22934 22935 4 180.0000771 4.6024000 2
22934 22936 22938 22939 1 180.0000771 15.1670000 2
22934 22936 22938 22940 1 180.0000771 15.1670000 2
22937 22936 22938 22939 1 180.0000771 15.1670000 2
22937 22936 22938 22940 1 180.0000771 15.1670000 2
22934 22938 22936 22937 4 180.0000771 4.6024000 2
22931 22938 22940 22941 4 180.0000771 4.6024000 2
22936 22938 22940 22941 1 180.0000771 15.1670000 2
22939 22938 22940 22941 1 180.0000771 15.1670000 2
22931 22940 22938 22936 1 180.0000771 15.1670000 2
22931 22940 22938 22939 1 180.0000771 15.1670000 2
22936 22940 22938 22939 4 180.0000771 4.6024000 2
22942 22943 22944 22945 1 180.0000771 15.1670000 2
22942 22943 22944 22946 1 180.0000771 15.1670000 2
22945 22943 22944 22946 4 180.0000771 4.6024000 2
22942 22943 22952 22944 4 180.0000771 4.6024000 2
22942 22943 22952 22950 1 180.0000771 15.1670000 2
22942 22943 22952 22953 1 180.0000771 15.1670000 2
22944 22943 22952 22950 1 180.0000771 15.1670000 2
22944 22943 22952 22953 1 180.0000771 15.1670000 2
22945 22944 22943 22952 1 180.0000771 15.1670000 2
22946 22944 22943 22952 1 180.0000771 15.1670000 2
22943 22944 22946 22947 1 180.0000771 15.1670000 2
22943 22944 22946 22948 1 180.0000771 15.1670000 2
22945 22944 22946 22947 1 180.0000771 15.1670000 2
22945 22944 22946 22948 1 180.0000771 15.1670000 2
22944 22946 22948 22949 1 180.0000771 15.1670000 2
22944 22946 22948 22950 1 180.0000771 15.1670000 2
22947 22946 22948 22949 1 180.0000771 15.1670000 2
22947 22946 22948 22950 1 180.0000771 15.1670000 2
22944 22948 22946 22947 4 180.0000771 4.6024000 2
22946 22948 22950 22951 1 180.0000771 15.1670000 2
22946 22948 22950 22952 1 180.0000771 15.1670000 2
22949 22948 22950 22951 1 180.0000771 15.1670000 2
22949 22948 22950 22952 1 180.0000771 15.1670000 2
22946 22950 22948 22949 4 180.0000771 4.6024000 2
22943 22950 22952 22953 4 180.0000771 4.6024000 2
22948 22950 22952 22953 1 180.0000771 15.1670000 2
22951 22950 22952 22953 1 180.0000771 15.1670000 2
22943 22952 22950 22948 1 180.0000771 15.1670000 2
22943 22952 22950 22951 1 180.0000771 15.1670000 2
22948 22952 22950 22951 4 180.0000771 4.6024000 2
22954 22955 22956 22957 1 180.0000771 15.1670000 2
22954 22955 22956 22958 1 180.0000771 15.1670000 2
22957 22955 22956 22958 4 180.0000771 4.6024000 2
22954 22955 22964 22956 4 180.0000771 4.6024000 2
22954 22955 22964 22962 1 180.0000771 15.1670000 2
22954 22955 22964 22965 1 180.0000771 15.1670000 2
22956 22955 22964 22962 1 180.0000771 15.1670000 2
22956 22955 22964 22965 1 180.0000771 15.1670000 2
22957 22956 22955 22964 1 180.0000771 15.1670000 2
22958 22956 22955 22964 1 180.0000771 15.1670000 2
22955 22956 22958 22959 1 180.0000771 15.1670000 2
22955 22956 22958 22960 1 180.0000771 15.1670000 2
22957 22956 22958 22959 1 180.0000771 15.1670000 2
22957 22956 22958 22960 1 180.0000771 15.1670000 2
22956 22958 22960 22961 1 180.0000771 15.1670000 2
22956 22958 22960 22962 1 180.0000771 15.1670000 2
22959 22958 22960 22961 1 180.0000771 15.1670000 2
22959 22958 22960 22962 1 180.0000771 15.1670000 2
22956 22960 22958 22959 4 180.0000771 4.6024000 2
22958 22960 22962 22963 1 180.0000771 15.1670000 2
22958 22960 22962 22964 1 180.0000771 15.1670000 2
22961 22960 22962 22963 1 180.0000771 15.1670000 2
22961 22960 22962 22964 1 180.0000771 15.1670000 2
22958 22962 22960 22961 4 180.0000771 4.6024000 2
22955 22962 22964 22965 4 180.0000771 4.6024000 2
22960 22962 22964 22965 1 180.0000771 15.1670000 2
22963 22962 22964 22965 1 180.0000771 15.1670000 2
22955 22964 22962 22960 1 180.0000771 15.1670000 2
22955 22964 22962 22963 1 180.0000771 15.1670000 2
22960 22964 22962 22963 4 180.0000771 4.6024000 2
22966 22967 22968 22969 1 180.0000771 15.1670000 2
22966 22967 22968 22970 1 180.0000771 15.1670000 2
22969 22967 22968 22970 4 180.0000771 4.6024000 2
22966 22967 22976 22968 4 180.0000771 4.6024000 2
22966 22967 22976 22974 1 180.0000771 15.1670000 2
22966 22967 22976 22977 1 180.0000771 15.1670000 2
22968 22967 22976 22974 1 180.0000771 15.1670000 2
22968 22967 22976 22977 1 180.0000771 15.1670000 2
22969 22968 22967 22976 1 180.0000771 15.1670000 2
22970 22968 22967 22976 1 180.0000771 15.1670000 2
22967 22968 22970 22971 1 180.0000771 15.1670000 2
22967 22968 22970 22972 1 180.0000771 15.1670000 2
22969 22968 22970 22971 1 180.0000771 15.1670000 2
22969 22968 22970 22972 1 180.0000771 15.1670000 2
22968 22970 22972 22973 1 180.0000771 15.1670000 2
22968 22970 22972 22974 1 180.0000771 15.1670000 2
22971 22970 22972 22973 1 180.0000771 15.1670000 2
22971 22970 22972 22974 1 180.0000771 15.1670000 2
22968 22972 22970 22971 4 180.0000771 4.6024000 2
22970 22972 22974 22975 1 180.0000771 15.1670000 2
22970 22972 22974 22976 1 180.0000771 15.1670000 2
22973 22972 22974 22975 1 180.0000771 15.1670000 2
22973 22972 22974 22976 1 180.0000771 15.1670000 2
22970 22974 22972 22973 4 180.0000771 4.6024000 2
22967 22974 22976 22977 4 180.0000771 4.6024000 2
22972 22974 22976 22977 1 180.0000771 15.1670000 2
22975 22974 22976 22977 1 180.0000771 15.1670000 2
22967 22976 22974 22972 1 180.0000771 15.1670000 2
22967 22976 22974 22975 1 180.0000771 15.1670000 2
22972 22976 22974 22975 4 180.0000771 4.6024000 2
22978 22979 22980 22981 1 180.0000771 15.1670000 2
22978 22979 22980 22982 1 180.0000771 15.1670000 2
22981 22979 22980 22982 4 180.0000771 4.6024000 2
22978 22979 22988 22980 4 180.0000771 4.6024000 2
22978 22979 22988 22986 1 180.0000771 15.1670000 2
22978 22979 22988 22989 1 180.0000771 15.1670000 2
22980 22979 22988 22986 1 180.0000771 15.1670000 2
22980 22979 22988 22989 1 180.0000771 15.1670000 2
22981 22980 22979 22988 1 180.0000771 15.1670000 2
22982 22980 22979 22988 1 180.0000771 15.1670000 2
22979 22980 22982 22983 1 180.0000771 15.1670000 2
22979 22980 22982 22984 1 180.0000771 15.1670000 2
22981 22980 22982 22983 1 180.0000771 15.1670000 2
22981 22980 22982 22984 1 180.0000771 15.1670000 2
22980 22982 22984 22985 1 180.0000771 15.1670000 2
22980 22982 22984 22986 1 180.0000771 15.1670000 2
22983 22982 22984 22985 1 180.0000771 15.1670000 2
22983 22982 22984 22986 1 180.0000771 15.1670000 2
22980 22984 22982 22983 4 180.0000771 4.6024000 2
22982 22984 22986 22987 1 180.0000771 15.1670000 2
22982 22984 22986 22988 1 180.0000771 15.1670000 2
22985 22984 22986 22987 1 180.0000771 15.1670000 2
22985 22984 22986 22988 1 180.0000771 15.1670000 2
22982 22986 22984 22985 4 180.0000771 4.6024000 2
22979 22986 22988 22989 4 180.0000771 4.6024000 2
22984 22986 22988 22989 1 180.0000771 15.1670000 2
22987 22986 22988 22989 1 180.0000771 15.1670000 2
22979 22988 22986 22984 1 180.0000771 15.1670000 2
22979 22988 22986 22987 1 180.0000771 15.1670000 2
22984 22988 22986 22987 4 180.0000771 4.6024000 2
22990 22991 22992 22993 1 180.0000771 15.1670000 2
22990 22991 22992 22994 1 180.0000771 15.1670000 2
22993 22991 22992 22994 4 180.0000771 4.6024000 2
22990 22991 23000 22992 4 180.0000771 4.6024000 2
22990 22991 23000 22998 1 180.0000771 15.1670000 2
22990 22991 23000 23001 1 180.0000771 15.1670000 2
22992 22991 23000 22998 1 180.0000771 15.1670000 2
22992 22991 23000 23001 1 180.0000771 15.1670000 2
22993 22992 22991 23000 1 180.0000771 15.1670000 2
22994 22992 22991 23000 1 180.0000771 15.1670000 2
22991 22992 22994 22995 1 180.0000771 15.1670000 2
22991 22992 22994 22996 1 180.0000771 15.1670000 2
22993 22992 22994 22995 1 180.0000771 15.1670000 2
22993 22992 22994 22996 1 180.0000771 15.1670000 2
22992 22994 22996 22997 1 180.0000771 15.1670000 2
22992 22994 22996 22998 1 180.0000771 15.1670000 2
22995 22994 22996 22997 1 180.0000771 15.1670000 2
22995 22994 22996 22998 1 180.0000771 15.1670000 2
22992 22996 22994 22995 4 180.0000771 4.6024000 2
22994 22996 22998 22999 1 180.0000771 15.1670000 2
22994 22996 22998 23000 1 180.0000771 15.1670000 2
22997 22996 22998 22999 1 180.0000771 15.1670000 2
22997 22996 22998 23000 1 180.0000771 15.1670000 2
22994 22998 22996 22997 4 180.0000771 4.6024000 2
22991 22998 23000 23001 4 180.0000771 4.6024000 2
22996 22998 23000 23001 1 180.0000771 15.1670000 2
22999 22998 23000 23001 1 180.0000771 15.1670000 2
22991 23000 22998 22996 1 180.0000771 15.1670000 2
22991 23000 22998 22999 1 180.0000771 15.1670000 2
22996 23000 22998 22999 4 180.0000771 4.6024000 2
23002 23003 23004 23005 1 180.0000771 15.1670000 2
23002 23003 23004 23006 1 180.0000771 15.1670000 2
23005 23003 23004 23006 4 180.0000771 4.6024000 2
23002 23003 23012 23004 4 180.0000771 4.6024000 2
23002 23003 23012 23010 1 180.0000771 15.1670000 2
23002 23003 23012 23013 1 180.0000771 15.1670000 2
23004 23003 23012 23010 1 180.0000771 15.1670000 2
23004 23003 23012 23013 1 180.0000771 15.1670000 2
23005 23004 23003 23012 1 180.0000771 15.1670000 2
23006 23004 23003 23012 1 180.0000771 15.1670000 2
23003 23004 23006 23007 1 180.0000771 15.1670000 2
23003 23004 23006 23008 1 180.0000771 15.1670000 2
23005 23004 23006 23007 1 180.0000771 15.1670000 2
23005 23004 23006 23008 1 180.0000771 15.1670000 2
23004 23006 23008 23009 1 180.0000771 15.1670000 2
23004 23006 23008 23010 1 180.0000771 15.1670000 2
23007 23006 23008 23009 1 180.0000771 15.1670000 2
23007 23006 23008 23010 1 180.0000771 15.1670000 2
23004 23008 23006 23007 4 180.0000771 4.6024000 2
23006 23008 23010 23011 1 180.0000771 15.1670000 2
23006 23008 23010 23012 1 180.0000771 15.1670000 2
23009 23008 23010 23011 1 180.0000771 15.1670000 2
23009 23008 23010 23012 1 180.0000771 15.1670000 2
23006 23010 23008 23009 4 180.0000771 4.6024000 2
23003 23010 23012 23013 4 180.0000771 4.6024000 2
23008 23010 23012 23013 1 180.0000771 15.1670000 2
23011 23010 23012 23013 1 180.0000771 15.1670000 2
23003 23012 23010 23008 1 180.0000771 15.1670000 2
23003 23012 23010 23011 1 180.0000771 15.1670000 2
23008 23012 23010 23011 4 180.0000771 4.6024000 2
23014 23015 23016 23017 1 180.0000771 15.1670000 2
23014 23015 23016 23018 1 180.0000771 15.1670000 2
23017 23015 23016 23018 4 180.0000771 4.6024000 2
23014 23015 23024 23016 4 180.0000771 4.6024000 2
23014 23015 23024 23022 1 180.0000771 15.1670000 2
23014 23015 23024 23025 1 180.0000771 15.1670000 2
23016 23015 23024 23022 1 180.0000771 15.1670000 2
23016 23015 23024 23025 1 180.0000771 15.1670000 2
23017 23016 23015 23024 1 180.0000771 15.1670000 2
23018 23016 23015 23024 1 180.0000771 15.1670000 2
23015 23016 23018 23019 1 180.0000771 15.1670000 2
23015 23016 23018 23020 1 180.0000771 15.1670000 2
23017 23016 23018 23019 1 180.0000771 15.1670000 2
23017 23016 23018 23020 1 180.0000771 15.1670000 2
23016 23018 23020 23021 1 180.0000771 15.1670000 2
23016 23018 23020 23022 1 180.0000771 15.1670000 2
23019 23018 23020 23021 1 180.0000771 15.1670000 2
23019 23018 23020 23022 1 180.0000771 15.1670000 2
23016 23020 23018 23019 4 180.0000771 4.6024000 2
23018 23020 23022 23023 1 180.0000771 15.1670000 2
23018 23020 23022 23024 1 180.0000771 15.1670000 2
23021 23020 23022 23023 1 180.0000771 15.1670000 2
23021 23020 23022 23024 1 180.0000771 15.1670000 2
23018 23022 23020 23021 4 180.0000771 4.6024000 2
23015 23022 23024 23025 4 180.0000771 4.6024000 2
23020 23022 23024 23025 1 180.0000771 15.1670000 2
23023 23022 23024 23025 1 180.0000771 15.1670000 2
23015 23024 23022 23020 1 180.0000771 15.1670000 2
23015 23024 23022 23023 1 180.0000771 15.1670000 2
23020 23024 23022 23023 4 180.0000771 4.6024000 2
23026 23027 23028 23029 1 180.0000771 15.1670000 2
23026 23027 23028 23030 1 180.0000771 15.1670000 2
23029 23027 23028 23030 4 180.0000771 4.6024000 2
23026 23027 23036 23028 4 180.0000771 4.6024000 2
23026 23027 23036 23034 1 180.0000771 15.1670000 2
23026 23027 23036 23037 1 180.0000771 15.1670000 2
23028 23027 23036 23034 1 180.0000771 15.1670000 2
23028 23027 23036 23037 1 180.0000771 15.1670000 2
23029 23028 23027 23036 1 180.0000771 15.1670000 2
23030 23028 23027 23036 1 180.0000771 15.1670000 2
23027 23028 23030 23031 1 180.0000771 15.1670000 2
23027 23028 23030 23032 1 180.0000771 15.1670000 2
23029 23028 23030 23031 1 180.0000771 15.1670000 2
23029 23028 23030 23032 1 180.0000771 15.1670000 2
23028 23030 23032 23033 1 180.0000771 15.1670000 2
23028 23030 23032 23034 1 180.0000771 15.1670000 2
23031 23030 23032 23033 1 180.0000771 15.1670000 2
23031 23030 23032 23034 1 180.0000771 15.1670000 2
23028 23032 23030 23031 4 180.0000771 4.6024000 2
23030 23032 23034 23035 1 180.0000771 15.1670000 2
23030 23032 23034 23036 1 180.0000771 15.1670000 2
23033 23032 23034 23035 1 180.0000771 15.1670000 2
23033 23032 23034 23036 1 180.0000771 15.1670000 2
23030 23034 23032 23033 4 180.0000771 4.6024000 2
23027 23034 23036 23037 4 180.0000771 4.6024000 2
23032 23034 23036 23037 1 180.0000771 15.1670000 2
23035 23034 23036 23037 1 180.0000771 15.1670000 2
23027 23036 23034 23032 1 180.0000771 15.1670000 2
23027 23036 23034 23035 1 180.0000771 15.1670000 2
23032 23036 23034 23035 4 180.0000771 4.6024000 2
23038 23039 23040 23041 1 180.0000771 15.1670000 2
23038 23039 23040 23042 1 180.0000771 15.1670000 2
23041 23039 23040 23042 4 180.0000771 4.6024000 2
23038 23039 23048 23040 4 180.0000771 4.6024000 2
23038 23039 23048 23046 1 180.0000771 15.1670000 2
23038 23039 23048 23049 1 180.0000771 15.1670000 2
23040 23039 23048 23046 1 180.0000771 15.1670000 2
23040 23039 23048 23049 1 180.0000771 15.1670000 2
23041 23040 23039 23048 1 180.0000771 15.1670000 2
23042 23040 23039 23048 1 180.0000771 15.1670000 2
23039 23040 23042 23043 1 180.0000771 15.1670000 2
23039 23040 23042 23044 1 180.0000771 15.1670000 2
23041 23040 23042 23043 1 180.0000771 15.1670000 2
23041 23040 23042 23044 1 180.0000771 15.1670000 2
23040 23042 23044 23045 1 180.0000771 15.1670000 2
23040 23042 23044 23046 1 180.0000771 15.1670000 2
23043 23042 23044 23045 1 180.0000771 15.1670000 2
23043 23042 23044 23046 1 180.0000771 15.1670000 2
23040 23044 23042 23043 4 180.0000771 4.6024000 2
23042 23044 23046 23047 1 180.0000771 15.1670000 2
23042 23044 23046 23048 1 180.0000771 15.1670000 2
23045 23044 23046 23047 1 180.0000771 15.1670000 2
23045 23044 23046 23048 1 180.0000771 15.1670000 2
23042 23046 23044 23045 4 180.0000771 4.6024000 2
23039 23046 23048 23049 4 180.0000771 4.6024000 2
23044 23046 23048 23049 1 180.0000771 15.1670000 2
23047 23046 23048 23049 1 180.0000771 15.1670000 2
23039 23048 23046 23044 1 180.0000771 15.1670000 2
23039 23048 23046 23047 1 180.0000771 15.1670000 2
23044 23048 23046 23047 4 180.0000771 4.6024000 2
23050 23051 23052 23053 1 180.0000771 15.1670000 2
23050 23051 23052 23054 1 180.0000771 15.1670000 2
23053 23051 23052 23054 4 180.0000771 4.6024000 2
23050 23051 23060 23052 4 180.0000771 4.6024000 2
23050 23051 23060 23058 1 180.0000771 15.1670000 2
23050 23051 23060 23061 1 180.0000771 15.1670000 2
23052 23051 23060 23058 1 180.0000771 15.1670000 2
23052 23051 23060 23061 1 180.0000771 15.1670000 2
23053 23052 23051 23060 1 180.0000771 15.1670000 2
23054 23052 23051 23060 1 180.0000771 15.1670000 2
23051 23052 23054 23055 1 180.0000771 15.1670000 2
23051 23052 23054 23056 1 180.0000771 15.1670000 2
23053 23052 23054 23055 1 180.0000771 15.1670000 2
23053 23052 23054 23056 1 180.0000771 15.1670000 2
23052 23054 23056 23057 1 180.0000771 15.1670000 2
23052 23054 23056 23058 1 180.0000771 15.1670000 2
23055 23054 23056 23057 1 180.0000771 15.1670000 2
23055 23054 23056 23058 1 180.0000771 15.1670000 2
23052 23056 23054 23055 4 180.0000771 4.6024000 2
23054 23056 23058 23059 1 180.0000771 15.1670000 2
23054 23056 23058 23060 1 180.0000771 15.1670000 2
23057 23056 23058 23059 1 180.0000771 15.1670000 2
23057 23056 23058 23060 1 180.0000771 15.1670000 2
23054 23058 23056 23057 4 180.0000771 4.6024000 2
23051 23058 23060 23061 4 180.0000771 4.6024000 2
23056 23058 23060 23061 1 180.0000771 15.1670000 2
23059 23058 23060 23061 1 180.0000771 15.1670000 2
23051 23060 23058 23056 1 180.0000771 15.1670000 2
23051 23060 23058 23059 1 180.0000771 15.1670000 2
23056 23060 23058 23059 4 180.0000771 4.6024000 2
23062 23063 23064 23065 1 180.0000771 15.1670000 2
23062 23063 23064 23066 1 180.0000771 15.1670000 2
23065 23063 23064 23066 4 180.0000771 4.6024000 2
23062 23063 23072 23064 4 180.0000771 4.6024000 2
23062 23063 23072 23070 1 180.0000771 15.1670000 2
23062 23063 23072 23073 1 180.0000771 15.1670000 2
23064 23063 23072 23070 1 180.0000771 15.1670000 2
23064 23063 23072 23073 1 180.0000771 15.1670000 2
23065 23064 23063 23072 1 180.0000771 15.1670000 2
23066 23064 23063 23072 1 180.0000771 15.1670000 2
23063 23064 23066 23067 1 180.0000771 15.1670000 2
23063 23064 23066 23068 1 180.0000771 15.1670000 2
23065 23064 23066 23067 1 180.0000771 15.1670000 2
23065 23064 23066 23068 1 180.0000771 15.1670000 2
23064 23066 23068 23069 1 180.0000771 15.1670000 2
23064 23066 23068 23070 1 180.0000771 15.1670000 2
23067 23066 23068 23069 1 180.0000771 15.1670000 2
23067 23066 23068 23070 1 180.0000771 15.1670000 2
23064 23068 23066 23067 4 180.0000771 4.6024000 2
23066 23068 23070 23071 1 180.0000771 15.1670000 2
23066 23068 23070 23072 1 180.0000771 15.1670000 2
23069 23068 23070 23071 1 180.0000771 15.1670000 2
23069 23068 23070 23072 1 180.0000771 15.1670000 2
23066 23070 23068 23069 4 180.0000771 4.6024000 2
23063 23070 23072 23073 4 180.0000771 4.6024000 2
23068 23070 23072 23073 1 180.0000771 15.1670000 2
23071 23070 23072 23073 1 180.0000771 15.1670000 2
23063 23072 23070 23068 1 180.0000771 15.1670000 2
23063 23072 23070 23071 1 180.0000771 15.1670000 2
23068 23072 23070 23071 4 180.0000771 4.6024000 2
23074 23075 23076 23077 1 180.0000771 15.1670000 2
23074 23075 23076 23078 1 180.0000771 15.1670000 2
23077 23075 23076 23078 4 180.0000771 4.6024000 2
23074 23075 23084 23076 4 180.0000771 4.6024000 2
23074 23075 23084 23082 1 180.0000771 15.1670000 2
23074 23075 23084 23085 1 180.0000771 15.1670000 2
23076 23075 23084 23082 1 180.0000771 15.1670000 2
23076 23075 23084 23085 1 180.0000771 15.1670000 2
23077 23076 23075 23084 1 180.0000771 15.1670000 2
23078 23076 23075 23084 1 180.0000771 15.1670000 2
23075 23076 23078 23079 1 180.0000771 15.1670000 2
23075 23076 23078 23080 1 180.0000771 15.1670000 2
23077 23076 23078 23079 1 180.0000771 15.1670000 2
23077 23076 23078 23080 1 180.0000771 15.1670000 2
23076 23078 23080 23081 1 180.0000771 15.1670000 2
23076 23078 23080 23082 1 180.0000771 15.1670000 2
23079 23078 23080 23081 1 180.0000771 15.1670000 2
23079 23078 23080 23082 1 180.0000771 15.1670000 2
23076 23080 23078 23079 4 180.0000771 4.6024000 2
23078 23080 23082 23083 1 180.0000771 15.1670000 2
23078 23080 23082 23084 1 180.0000771 15.1670000 2
23081 23080 23082 23083 1 180.0000771 15.1670000 2
23081 23080 23082 23084 1 180.0000771 15.1670000 2
23078 23082 23080 23081 4 180.0000771 4.6024000 2
23075 23082 23084 23085 4 180.0000771 4.6024000 2
23080 23082 23084 23085 1 180.0000771 15.1670000 2
23083 23082 23084 23085 1 180.0000771 15.1670000 2
23075 23084 23082 23080 1 180.0000771 15.1670000 2
23075 23084 23082 23083 1 180.0000771 15.1670000 2
23080 23084 23082 23083 4 180.0000771 4.6024000 2
23086 23087 23088 23089 1 180.0000771 15.1670000 2
23086 23087 23088 23090 1 180.0000771 15.1670000 2
23089 23087 23088 23090 4 180.0000771 4.6024000 2
23086 23087 23096 23088 4 180.0000771 4.6024000 2
23086 23087 23096 23094 1 180.0000771 15.1670000 2
23086 23087 23096 23097 1 180.0000771 15.1670000 2
23088 23087 23096 23094 1 180.0000771 15.1670000 2
23088 23087 23096 23097 1 180.0000771 15.1670000 2
23089 23088 23087 23096 1 180.0000771 15.1670000 2
23090 23088 23087 23096 1 180.0000771 15.1670000 2
23087 23088 23090 23091 1 180.0000771 15.1670000 2
23087 23088 23090 23092 1 180.0000771 15.1670000 2
23089 23088 23090 23091 1 180.0000771 15.1670000 2
23089 23088 23090 23092 1 180.0000771 15.1670000 2
23088 23090 23092 23093 1 180.0000771 15.1670000 2
23088 23090 23092 23094 1 180.0000771 15.1670000 2
23091 23090 23092 23093 1 180.0000771 15.1670000 2
23091 23090 23092 23094 1 180.0000771 15.1670000 2
23088 23092 23090 23091 4 180.0000771 4.6024000 2
23090 23092 23094 23095 1 180.0000771 15.1670000 2
23090 23092 23094 23096 1 180.0000771 15.1670000 2
23093 23092 23094 23095 1 180.0000771 15.1670000 2
23093 23092 23094 23096 1 180.0000771 15.1670000 2
23090 23094 23092 23093 4 180.0000771 4.6024000 2
23087 23094 23096 23097 4 180.0000771 4.6024000 2
23092 23094 23096 23097 1 180.0000771 15.1670000 2
23095 23094 23096 23097 1 180.0000771 15.1670000 2
23087 23096 23094 23092 1 180.0000771 15.1670000 2
23087 23096 23094 23095 1 180.0000771 15.1670000 2
23092 23096 23094 23095 4 180.0000771 4.6024000 2
23098 23099 23100 23101 1 180.0000771 15.1670000 2
23098 23099 23100 23102 1 180.0000771 15.1670000 2
23101 23099 23100 23102 4 180.0000771 4.6024000 2
23098 23099 23108 23100 4 180.0000771 4.6024000 2
23098 23099 23108 23106 1 180.0000771 15.1670000 2
23098 23099 23108 23109 1 180.0000771 15.1670000 2
23100 23099 23108 23106 1 180.0000771 15.1670000 2
23100 23099 23108 23109 1 180.0000771 15.1670000 2
23101 23100 23099 23108 1 180.0000771 15.1670000 2
23102 23100 23099 23108 1 180.0000771 15.1670000 2
23099 23100 23102 23103 1 180.0000771 15.1670000 2
23099 23100 23102 23104 1 180.0000771 15.1670000 2
23101 23100 23102 23103 1 180.0000771 15.1670000 2
23101 23100 23102 23104 1 180.0000771 15.1670000 2
23100 23102 23104 23105 1 180.0000771 15.1670000 2
23100 23102 23104 23106 1 180.0000771 15.1670000 2
23103 23102 23104 23105 1 180.0000771 15.1670000 2
23103 23102 23104 23106 1 180.0000771 15.1670000 2
23100 23104 23102 23103 4 180.0000771 4.6024000 2
23102 23104 23106 23107 1 180.0000771 15.1670000 2
23102 23104 23106 23108 1 180.0000771 15.1670000 2
23105 23104 23106 23107 1 180.0000771 15.1670000 2
23105 23104 23106 23108 1 180.0000771 15.1670000 2
23102 23106 23104 23105 4 180.0000771 4.6024000 2
23099 23106 23108 23109 4 180.0000771 4.6024000 2
23104 23106 23108 23109 1 180.0000771 15.1670000 2
23107 23106 23108 23109 1 180.0000771 15.1670000 2
23099 23108 23106 23104 1 180.0000771 15.1670000 2
23099 23108 23106 23107 1 180.0000771 15.1670000 2
23104 23108 23106 23107 4 180.0000771 4.6024000 2
23110 23111 23112 23113 1 180.0000771 15.1670000 2
23110 23111 23112 23114 1 180.0000771 15.1670000 2
23113 23111 23112 23114 4 180.0000771 4.6024000 2
23110 23111 23120 23112 4 180.0000771 4.6024000 2
23110 23111 23120 23118 1 180.0000771 15.1670000 2
23110 23111 23120 23121 1 180.0000771 15.1670000 2
23112 23111 23120 23118 1 180.0000771 15.1670000 2
23112 23111 23120 23121 1 180.0000771 15.1670000 2
23113 23112 23111 23120 1 180.0000771 15.1670000 2
23114 23112 23111 23120 1 180.0000771 15.1670000 2
23111 23112 23114 23115 1 180.0000771 15.1670000 2
23111 23112 23114 23116 1 180.0000771 15.1670000 2
23113 23112 23114 23115 1 180.0000771 15.1670000 2
23113 23112 23114 23116 1 180.0000771 15.1670000 2
23112 23114 23116 23117 1 180.0000771 15.1670000 2
23112 23114 23116 23118 1 180.0000771 15.1670000 2
23115 23114 23116 23117 1 180.0000771 15.1670000 2
23115 23114 23116 23118 1 180.0000771 15.1670000 2
23112 23116 23114 23115 4 180.0000771 4.6024000 2
23114 23116 23118 23119 1 180.0000771 15.1670000 2
23114 23116 23118 23120 1 180.0000771 15.1670000 2
23117 23116 23118 23119 1 180.0000771 15.1670000 2
23117 23116 23118 23120 1 180.0000771 15.1670000 2
23114 23118 23116 23117 4 180.0000771 4.6024000 2
23111 23118 23120 23121 4 180.0000771 4.6024000 2
23116 23118 23120 23121 1 180.0000771 15.1670000 2
23119 23118 23120 23121 1 180.0000771 15.1670000 2
23111 23120 23118 23116 1 180.0000771 15.1670000 2
23111 23120 23118 23119 1 180.0000771 15.1670000 2
23116 23120 23118 23119 4 180.0000771 4.6024000 2
23122 23123 23124 23125 1 180.0000771 15.1670000 2
23122 23123 23124 23126 1 180.0000771 15.1670000 2
23125 23123 23124 23126 4 180.0000771 4.6024000 2
23122 23123 23132 23124 4 180.0000771 4.6024000 2
23122 23123 23132 23130 1 180.0000771 15.1670000 2
23122 23123 23132 23133 1 180.0000771 15.1670000 2
23124 23123 23132 23130 1 180.0000771 15.1670000 2
23124 23123 23132 23133 1 180.0000771 15.1670000 2
23125 23124 23123 23132 1 180.0000771 15.1670000 2
23126 23124 23123 23132 1 180.0000771 15.1670000 2
23123 23124 23126 23127 1 180.0000771 15.1670000 2
23123 23124 23126 23128 1 180.0000771 15.1670000 2
23125 23124 23126 23127 1 180.0000771 15.1670000 2
23125 23124 23126 23128 1 180.0000771 15.1670000 2
23124 23126 23128 23129 1 180.0000771 15.1670000 2
23124 23126 23128 23130 1 180.0000771 15.1670000 2
23127 23126 23128 23129 1 180.0000771 15.1670000 2
23127 23126 23128 23130 1 180.0000771 15.1670000 2
23124 23128 23126 23127 4 180.0000771 4.6024000 2
23126 23128 23130 23131 1 180.0000771 15.1670000 2
23126 23128 23130 23132 1 180.0000771 15.1670000 2
23129 23128 23130 23131 1 180.0000771 15.1670000 2
23129 23128 23130 23132 1 180.0000771 15.1670000 2
23126 23130 23128 23129 4 180.0000771 4.6024000 2
23123 23130 23132 23133 4 180.0000771 4.6024000 2
23128 23130 23132 23133 1 180.0000771 15.1670000 2
23131 23130 23132 23133 1 180.0000771 15.1670000 2
23123 23132 23130 23128 1 180.0000771 15.1670000 2
23123 23132 23130 23131 1 180.0000771 15.1670000 2
23128 23132 23130 23131 4 180.0000771 4.6024000 2
23134 23135 23136 23137 1 180.0000771 15.1670000 2
23134 23135 23136 23138 1 180.0000771 15.1670000 2
23137 23135 23136 23138 4 180.0000771 4.6024000 2
23134 23135 23144 23136 4 180.0000771 4.6024000 2
23134 23135 23144 23142 1 180.0000771 15.1670000 2
23134 23135 23144 23145 1 180.0000771 15.1670000 2
23136 23135 23144 23142 1 180.0000771 15.1670000 2
23136 23135 23144 23145 1 180.0000771 15.1670000 2
23137 23136 23135 23144 1 180.0000771 15.1670000 2
23138 23136 23135 23144 1 180.0000771 15.1670000 2
23135 23136 23138 23139 1 180.0000771 15.1670000 2
23135 23136 23138 23140 1 180.0000771 15.1670000 2
23137 23136 23138 23139 1 180.0000771 15.1670000 2
23137 23136 23138 23140 1 180.0000771 15.1670000 2
23136 23138 23140 23141 1 180.0000771 15.1670000 2
23136 23138 23140 23142 1 180.0000771 15.1670000 2
23139 23138 23140 23141 1 180.0000771 15.1670000 2
23139 23138 23140 23142 1 180.0000771 15.1670000 2
23136 23140 23138 23139 4 180.0000771 4.6024000 2
23138 23140 23142 23143 1 180.0000771 15.1670000 2
23138 23140 23142 23144 1 180.0000771 15.1670000 2
23141 23140 23142 23143 1 180.0000771 15.1670000 2
23141 23140 23142 23144 1 180.0000771 15.1670000 2
23138 23142 23140 23141 4 180.0000771 4.6024000 2
23135 23142 23144 23145 4 180.0000771 4.6024000 2
23140 23142 23144 23145 1 180.0000771 15.1670000 2
23143 23142 23144 23145 1 180.0000771 15.1670000 2
23135 23144 23142 23140 1 180.0000771 15.1670000 2
23135 23144 23142 23143 1 180.0000771 15.1670000 2
23140 23144 23142 23143 4 180.0000771 4.6024000 2
23146 23147 23148 23149 1 180.0000771 15.1670000 2
23146 23147 23148 23150 1 180.0000771 15.1670000 2
23149 23147 23148 23150 4 180.0000771 4.6024000 2
23146 23147 23156 23148 4 180.0000771 4.6024000 2
23146 23147 23156 23154 1 180.0000771 15.1670000 2
23146 23147 23156 23157 1 180.0000771 15.1670000 2
23148 23147 23156 23154 1 180.0000771 15.1670000 2
23148 23147 23156 23157 1 180.0000771 15.1670000 2
23149 23148 23147 23156 1 180.0000771 15.1670000 2
23150 23148 23147 23156 1 180.0000771 15.1670000 2
23147 23148 23150 23151 1 180.0000771 15.1670000 2
23147 23148 23150 23152 1 180.0000771 15.1670000 2
23149 23148 23150 23151 1 180.0000771 15.1670000 2
23149 23148 23150 23152 1 180.0000771 15.1670000 2
23148 23150 23152 23153 1 180.0000771 15.1670000 2
23148 23150 23152 23154 1 180.0000771 15.1670000 2
23151 23150 23152 23153 1 180.0000771 15.1670000 2
23151 23150 23152 23154 1 180.0000771 15.1670000 2
23148 23152 23150 23151 4 180.0000771 4.6024000 2
23150 23152 23154 23155 1 180.0000771 15.1670000 2
23150 23152 23154 23156 1 180.0000771 15.1670000 2
23153 23152 23154 23155 1 180.0000771 15.1670000 2
23153 23152 23154 23156 1 180.0000771 15.1670000 2
23150 23154 23152 23153 4 180.0000771 4.6024000 2
23147 23154 23156 23157 4 180.0000771 4.6024000 2
23152 23154 23156 23157 1 180.0000771 15.1670000 2
23155 23154 23156 23157 1 180.0000771 15.1670000 2
23147 23156 23154 23152 1 180.0000771 15.1670000 2
23147 23156 23154 23155 1 180.0000771 15.1670000 2
23152 23156 23154 23155 4 180.0000771 4.6024000 2
23158 23159 23160 23161 1 180.0000771 15.1670000 2
23158 23159 23160 23162 1 180.0000771 15.1670000 2
23161 23159 23160 23162 4 180.0000771 4.6024000 2
23158 23159 23168 23160 4 180.0000771 4.6024000 2
23158 23159 23168 23166 1 180.0000771 15.1670000 2
23158 23159 23168 23169 1 180.0000771 15.1670000 2
23160 23159 23168 23166 1 180.0000771 15.1670000 2
23160 23159 23168 23169 1 180.0000771 15.1670000 2
23161 23160 23159 23168 1 180.0000771 15.1670000 2
23162 23160 23159 23168 1 180.0000771 15.1670000 2
23159 23160 23162 23163 1 180.0000771 15.1670000 2
23159 23160 23162 23164 1 180.0000771 15.1670000 2
23161 23160 23162 23163 1 180.0000771 15.1670000 2
23161 23160 23162 23164 1 180.0000771 15.1670000 2
23160 23162 23164 23165 1 180.0000771 15.1670000 2
23160 23162 23164 23166 1 180.0000771 15.1670000 2
23163 23162 23164 23165 1 180.0000771 15.1670000 2
23163 23162 23164 23166 1 180.0000771 15.1670000 2
23160 23164 23162 23163 4 180.0000771 4.6024000 2
23162 23164 23166 23167 1 180.0000771 15.1670000 2
23162 23164 23166 23168 1 180.0000771 15.1670000 2
23165 23164 23166 23167 1 180.0000771 15.1670000 2
23165 23164 23166 23168 1 180.0000771 15.1670000 2
23162 23166 23164 23165 4 180.0000771 4.6024000 2
23159 23166 23168 23169 4 180.0000771 4.6024000 2
23164 23166 23168 23169 1 180.0000771 15.1670000 2
23167 23166 23168 23169 1 180.0000771 15.1670000 2
23159 23168 23166 23164 1 180.0000771 15.1670000 2
23159 23168 23166 23167 1 180.0000771 15.1670000 2
23164 23168 23166 23167 4 180.0000771 4.6024000 2
23170 23171 23172 23173 1 180.0000771 15.1670000 2
23170 23171 23172 23174 1 180.0000771 15.1670000 2
23173 23171 23172 23174 4 180.0000771 4.6024000 2
23170 23171 23180 23172 4 180.0000771 4.6024000 2
23170 23171 23180 23178 1 180.0000771 15.1670000 2
23170 23171 23180 23181 1 180.0000771 15.1670000 2
23172 23171 23180 23178 1 180.0000771 15.1670000 2
23172 23171 23180 23181 1 180.0000771 15.1670000 2
23173 23172 23171 23180 1 180.0000771 15.1670000 2
23174 23172 23171 23180 1 180.0000771 15.1670000 2
23171 23172 23174 23175 1 180.0000771 15.1670000 2
23171 23172 23174 23176 1 180.0000771 15.1670000 2
23173 23172 23174 23175 1 180.0000771 15.1670000 2
23173 23172 23174 23176 1 180.0000771 15.1670000 2
23172 23174 23176 23177 1 180.0000771 15.1670000 2
23172 23174 23176 23178 1 180.0000771 15.1670000 2
23175 23174 23176 23177 1 180.0000771 15.1670000 2
23175 23174 23176 23178 1 180.0000771 15.1670000 2
23172 23176 23174 23175 4 180.0000771 4.6024000 2
23174 23176 23178 23179 1 180.0000771 15.1670000 2
23174 23176 23178 23180 1 180.0000771 15.1670000 2
23177 23176 23178 23179 1 180.0000771 15.1670000 2
23177 23176 23178 23180 1 180.0000771 15.1670000 2
23174 23178 23176 23177 4 180.0000771 4.6024000 2
23171 23178 23180 23181 4 180.0000771 4.6024000 2
23176 23178 23180 23181 1 180.0000771 15.1670000 2
23179 23178 23180 23181 1 180.0000771 15.1670000 2
23171 23180 23178 23176 1 180.0000771 15.1670000 2
23171 23180 23178 23179 1 180.0000771 15.1670000 2
23176 23180 23178 23179 4 180.0000771 4.6024000 2
23182 23183 23184 23185 1 180.0000771 15.1670000 2
23182 23183 23184 23186 1 180.0000771 15.1670000 2
23185 23183 23184 23186 4 180.0000771 4.6024000 2
23182 23183 23192 23184 4 180.0000771 4.6024000 2
23182 23183 23192 23190 1 180.0000771 15.1670000 2
23182 23183 23192 23193 1 180.0000771 15.1670000 2
23184 23183 23192 23190 1 180.0000771 15.1670000 2
23184 23183 23192 23193 1 180.0000771 15.1670000 2
23185 23184 23183 23192 1 180.0000771 15.1670000 2
23186 23184 23183 23192 1 180.0000771 15.1670000 2
23183 23184 23186 23187 1 180.0000771 15.1670000 2
23183 23184 23186 23188 1 180.0000771 15.1670000 2
23185 23184 23186 23187 1 180.0000771 15.1670000 2
23185 23184 23186 23188 1 180.0000771 15.1670000 2
23184 23186 23188 23189 1 180.0000771 15.1670000 2
23184 23186 23188 23190 1 180.0000771 15.1670000 2
23187 23186 23188 23189 1 180.0000771 15.1670000 2
23187 23186 23188 23190 1 180.0000771 15.1670000 2
23184 23188 23186 23187 4 180.0000771 4.6024000 2
23186 23188 23190 23191 1 180.0000771 15.1670000 2
23186 23188 23190 23192 1 180.0000771 15.1670000 2
23189 23188 23190 23191 1 180.0000771 15.1670000 2
23189 23188 23190 23192 1 180.0000771 15.1670000 2
23186 23190 23188 23189 4 180.0000771 4.6024000 2
23183 23190 23192 23193 4 180.0000771 4.6024000 2
23188 23190 23192 23193 1 180.0000771 15.1670000 2
23191 23190 23192 23193 1 180.0000771 15.1670000 2
23183 23192 23190 23188 1 180.0000771 15.1670000 2
23183 23192 23190 23191 1 180.0000771 15.1670000 2
23188 23192 23190 23191 4 180.0000771 4.6024000 2
23194 23195 23196 23197 1 180.0000771 15.1670000 2
23194 23195 23196 23198 1 180.0000771 15.1670000 2
23197 23195 23196 23198 4 180.0000771 4.6024000 2
23194 23195 23204 23196 4 180.0000771 4.6024000 2
23194 23195 23204 23202 1 180.0000771 15.1670000 2
23194 23195 23204 23205 1 180.0000771 15.1670000 2
23196 23195 23204 23202 1 180.0000771 15.1670000 2
23196 23195 23204 23205 1 180.0000771 15.1670000 2
23197 23196 23195 23204 1 180.0000771 15.1670000 2
23198 23196 23195 23204 1 180.0000771 15.1670000 2
23195 23196 23198 23199 1 180.0000771 15.1670000 2
23195 23196 23198 23200 1 180.0000771 15.1670000 2
23197 23196 23198 23199 1 180.0000771 15.1670000 2
23197 23196 23198 23200 1 180.0000771 15.1670000 2
23196 23198 23200 23201 1 180.0000771 15.1670000 2
23196 23198 23200 23202 1 180.0000771 15.1670000 2
23199 23198 23200 23201 1 180.0000771 15.1670000 2
23199 23198 23200 23202 1 180.0000771 15.1670000 2
23196 23200 23198 23199 4 180.0000771 4.6024000 2
23198 23200 23202 23203 1 180.0000771 15.1670000 2
23198 23200 23202 23204 1 180.0000771 15.1670000 2
23201 23200 23202 23203 1 180.0000771 15.1670000 2
23201 23200 23202 23204 1 180.0000771 15.1670000 2
23198 23202 23200 23201 4 180.0000771 4.6024000 2
23195 23202 23204 23205 4 180.0000771 4.6024000 2
23200 23202 23204 23205 1 180.0000771 15.1670000 2
23203 23202 23204 23205 1 180.0000771 15.1670000 2
23195 23204 23202 23200 1 180.0000771 15.1670000 2
23195 23204 23202 23203 1 180.0000771 15.1670000 2
23200 23204 23202 23203 4 180.0000771 4.6024000 2
23206 23207 23208 23209 1 180.0000771 15.1670000 2
23206 23207 23208 23210 1 180.0000771 15.1670000 2
23209 23207 23208 23210 4 180.0000771 4.6024000 2
23206 23207 23216 23208 4 180.0000771 4.6024000 2
23206 23207 23216 23214 1 180.0000771 15.1670000 2
23206 23207 23216 23217 1 180.0000771 15.1670000 2
23208 23207 23216 23214 1 180.0000771 15.1670000 2
23208 23207 23216 23217 1 180.0000771 15.1670000 2
23209 23208 23207 23216 1 180.0000771 15.1670000 2
23210 23208 23207 23216 1 180.0000771 15.1670000 2
23207 23208 23210 23211 1 180.0000771 15.1670000 2
23207 23208 23210 23212 1 180.0000771 15.1670000 2
23209 23208 23210 23211 1 180.0000771 15.1670000 2
23209 23208 23210 23212 1 180.0000771 15.1670000 2
23208 23210 23212 23213 1 180.0000771 15.1670000 2
23208 23210 23212 23214 1 180.0000771 15.1670000 2
23211 23210 23212 23213 1 180.0000771 15.1670000 2
23211 23210 23212 23214 1 180.0000771 15.1670000 2
23208 23212 23210 23211 4 180.0000771 4.6024000 2
23210 23212 23214 23215 1 180.0000771 15.1670000 2
23210 23212 23214 23216 1 180.0000771 15.1670000 2
23213 23212 23214 23215 1 180.0000771 15.1670000 2
23213 23212 23214 23216 1 180.0000771 15.1670000 2
23210 23214 23212 23213 4 180.0000771 4.6024000 2
23207 23214 23216 23217 4 180.0000771 4.6024000 2
23212 23214 23216 23217 1 180.0000771 15.1670000 2
23215 23214 23216 23217 1 180.0000771 15.1670000 2
23207 23216 23214 23212 1 180.0000771 15.1670000 2
23207 23216 23214 23215 1 180.0000771 15.1670000 2
23212 23216 23214 23215 4 180.0000771 4.6024000 2
23218 23219 23220 23221 1 180.0000771 15.1670000 2
23218 23219 23220 23222 1 180.0000771 15.1670000 2
23221 23219 23220 23222 4 180.0000771 4.6024000 2
23218 23219 23228 23220 4 180.0000771 4.6024000 2
23218 23219 23228 23226 1 180.0000771 15.1670000 2
23218 23219 23228 23229 1 180.0000771 15.1670000 2
23220 23219 23228 23226 1 180.0000771 15.1670000 2
23220 23219 23228 23229 1 180.0000771 15.1670000 2
23221 23220 23219 23228 1 180.0000771 15.1670000 2
23222 23220 23219 23228 1 180.0000771 15.1670000 2
23219 23220 23222 23223 1 180.0000771 15.1670000 2
23219 23220 23222 23224 1 180.0000771 15.1670000 2
23221 23220 23222 23223 1 180.0000771 15.1670000 2
23221 23220 23222 23224 1 180.0000771 15.1670000 2
23220 23222 23224 23225 1 180.0000771 15.1670000 2
23220 23222 23224 23226 1 180.0000771 15.1670000 2
23223 23222 23224 23225 1 180.0000771 15.1670000 2
23223 23222 23224 23226 1 180.0000771 15.1670000 2
23220 23224 23222 23223 4 180.0000771 4.6024000 2
23222 23224 23226 23227 1 180.0000771 15.1670000 2
23222 23224 23226 23228 1 180.0000771 15.1670000 2
23225 23224 23226 23227 1 180.0000771 15.1670000 2
23225 23224 23226 23228 1 180.0000771 15.1670000 2
23222 23226 23224 23225 4 180.0000771 4.6024000 2
23219 23226 23228 23229 4 180.0000771 4.6024000 2
23224 23226 23228 23229 1 180.0000771 15.1670000 2
23227 23226 23228 23229 1 180.0000771 15.1670000 2
23219 23228 23226 23224 1 180.0000771 15.1670000 2
23219 23228 23226 23227 1 180.0000771 15.1670000 2
23224 23228 23226 23227 4 180.0000771 4.6024000 2
23230 23231 23232 23233 1 180.0000771 15.1670000 2
23230 23231 23232 23234 1 180.0000771 15.1670000 2
23233 23231 23232 23234 4 180.0000771 4.6024000 2
23230 23231 23240 23232 4 180.0000771 4.6024000 2
23230 23231 23240 23238 1 180.0000771 15.1670000 2
23230 23231 23240 23241 1 180.0000771 15.1670000 2
23232 23231 23240 23238 1 180.0000771 15.1670000 2
23232 23231 23240 23241 1 180.0000771 15.1670000 2
23233 23232 23231 23240 1 180.0000771 15.1670000 2
23234 23232 23231 23240 1 180.0000771 15.1670000 2
23231 23232 23234 23235 1 180.0000771 15.1670000 2
23231 23232 23234 23236 1 180.0000771 15.1670000 2
23233 23232 23234 23235 1 180.0000771 15.1670000 2
23233 23232 23234 23236 1 180.0000771 15.1670000 2
23232 23234 23236 23237 1 180.0000771 15.1670000 2
23232 23234 23236 23238 1 180.0000771 15.1670000 2
23235 23234 23236 23237 1 180.0000771 15.1670000 2
23235 23234 23236 23238 1 180.0000771 15.1670000 2
23232 23236 23234 23235 4 180.0000771 4.6024000 2
23234 23236 23238 23239 1 180.0000771 15.1670000 2
23234 23236 23238 23240 1 180.0000771 15.1670000 2
23237 23236 23238 23239 1 180.0000771 15.1670000 2
23237 23236 23238 23240 1 180.0000771 15.1670000 2
23234 23238 23236 23237 4 180.0000771 4.6024000 2
23231 23238 23240 23241 4 180.0000771 4.6024000 2
23236 23238 23240 23241 1 180.0000771 15.1670000 2
23239 23238 23240 23241 1 180.0000771 15.1670000 2
23231 23240 23238 23236 1 180.0000771 15.1670000 2
23231 23240 23238 23239 1 180.0000771 15.1670000 2
23236 23240 23238 23239 4 180.0000771 4.6024000 2
23242 23243 23244 23245 1 180.0000771 15.1670000 2
23242 23243 23244 23246 1 180.0000771 15.1670000 2
23245 23243 23244 23246 4 180.0000771 4.6024000 2
23242 23243 23252 23244 4 180.0000771 4.6024000 2
23242 23243 23252 23250 1 180.0000771 15.1670000 2
23242 23243 23252 23253 1 180.0000771 15.1670000 2
23244 23243 23252 23250 1 180.0000771 15.1670000 2
23244 23243 23252 23253 1 180.0000771 15.1670000 2
23245 23244 23243 23252 1 180.0000771 15.1670000 2
23246 23244 23243 23252 1 180.0000771 15.1670000 2
23243 23244 23246 23247 1 180.0000771 15.1670000 2
23243 23244 23246 23248 1 180.0000771 15.1670000 2
23245 23244 23246 23247 1 180.0000771 15.1670000 2
23245 23244 23246 23248 1 180.0000771 15.1670000 2
23244 23246 23248 23249 1 180.0000771 15.1670000 2
23244 23246 23248 23250 1 180.0000771 15.1670000 2
23247 23246 23248 23249 1 180.0000771 15.1670000 2
23247 23246 23248 23250 1 180.0000771 15.1670000 2
23244 23248 23246 23247 4 180.0000771 4.6024000 2
23246 23248 23250 23251 1 180.0000771 15.1670000 2
23246 23248 23250 23252 1 180.0000771 15.1670000 2
23249 23248 23250 23251 1 180.0000771 15.1670000 2
23249 23248 23250 23252 1 180.0000771 15.1670000 2
23246 23250 23248 23249 4 180.0000771 4.6024000 2
23243 23250 23252 23253 4 180.0000771 4.6024000 2
23248 23250 23252 23253 1 180.0000771 15.1670000 2
23251 23250 23252 23253 1 180.0000771 15.1670000 2
23243 23252 23250 23248 1 180.0000771 15.1670000 2
23243 23252 23250 23251 1 180.0000771 15.1670000 2
23248 23252 23250 23251 4 180.0000771 4.6024000 2
23254 23255 23256 23257 1 180.0000771 15.1670000 2
23254 23255 23256 23258 1 180.0000771 15.1670000 2
23257 23255 23256 23258 4 180.0000771 4.6024000 2
23254 23255 23264 23256 4 180.0000771 4.6024000 2
23254 23255 23264 23262 1 180.0000771 15.1670000 2
23254 23255 23264 23265 1 180.0000771 15.1670000 2
23256 23255 23264 23262 1 180.0000771 15.1670000 2
23256 23255 23264 23265 1 180.0000771 15.1670000 2
23257 23256 23255 23264 1 180.0000771 15.1670000 2
23258 23256 23255 23264 1 180.0000771 15.1670000 2
23255 23256 23258 23259 1 180.0000771 15.1670000 2
23255 23256 23258 23260 1 180.0000771 15.1670000 2
23257 23256 23258 23259 1 180.0000771 15.1670000 2
23257 23256 23258 23260 1 180.0000771 15.1670000 2
23256 23258 23260 23261 1 180.0000771 15.1670000 2
23256 23258 23260 23262 1 180.0000771 15.1670000 2
23259 23258 23260 23261 1 180.0000771 15.1670000 2
23259 23258 23260 23262 1 180.0000771 15.1670000 2
23256 23260 23258 23259 4 180.0000771 4.6024000 2
23258 23260 23262 23263 1 180.0000771 15.1670000 2
23258 23260 23262 23264 1 180.0000771 15.1670000 2
23261 23260 23262 23263 1 180.0000771 15.1670000 2
23261 23260 23262 23264 1 180.0000771 15.1670000 2
23258 23262 23260 23261 4 180.0000771 4.6024000 2
23255 23262 23264 23265 4 180.0000771 4.6024000 2
23260 23262 23264 23265 1 180.0000771 15.1670000 2
23263 23262 23264 23265 1 180.0000771 15.1670000 2
23255 23264 23262 23260 1 180.0000771 15.1670000 2
23255 23264 23262 23263 1 180.0000771 15.1670000 2
23260 23264 23262 23263 4 180.0000771 4.6024000 2
23266 23267 23268 23269 1 180.0000771 15.1670000 2
23266 23267 23268 23270 1 180.0000771 15.1670000 2
23269 23267 23268 23270 4 180.0000771 4.6024000 2
23266 23267 23276 23268 4 180.0000771 4.6024000 2
23266 23267 23276 23274 1 180.0000771 15.1670000 2
23266 23267 23276 23277 1 180.0000771 15.1670000 2
23268 23267 23276 23274 1 180.0000771 15.1670000 2
23268 23267 23276 23277 1 180.0000771 15.1670000 2
23269 23268 23267 23276 1 180.0000771 15.1670000 2
23270 23268 23267 23276 1 180.0000771 15.1670000 2
23267 23268 23270 23271 1 180.0000771 15.1670000 2
23267 23268 23270 23272 1 180.0000771 15.1670000 2
23269 23268 23270 23271 1 180.0000771 15.1670000 2
23269 23268 23270 23272 1 180.0000771 15.1670000 2
23268 23270 23272 23273 1 180.0000771 15.1670000 2
23268 23270 23272 23274 1 180.0000771 15.1670000 2
23271 23270 23272 23273 1 180.0000771 15.1670000 2
23271 23270 23272 23274 1 180.0000771 15.1670000 2
23268 23272 23270 23271 4 180.0000771 4.6024000 2
23270 23272 23274 23275 1 180.0000771 15.1670000 2
23270 23272 23274 23276 1 180.0000771 15.1670000 2
23273 23272 23274 23275 1 180.0000771 15.1670000 2
23273 23272 23274 23276 1 180.0000771 15.1670000 2
23270 23274 23272 23273 4 180.0000771 4.6024000 2
23267 23274 23276 23277 4 180.0000771 4.6024000 2
23272 23274 23276 23277 1 180.0000771 15.1670000 2
23275 23274 23276 23277 1 180.0000771 15.1670000 2
23267 23276 23274 23272 1 180.0000771 15.1670000 2
23267 23276 23274 23275 1 180.0000771 15.1670000 2
23272 23276 23274 23275 4 180.0000771 4.6024000 2
23278 23279 23280 23281 1 180.0000771 15.1670000 2
23278 23279 23280 23282 1 180.0000771 15.1670000 2
23281 23279 23280 23282 4 180.0000771 4.6024000 2
23278 23279 23288 23280 4 180.0000771 4.6024000 2
23278 23279 23288 23286 1 180.0000771 15.1670000 2
23278 23279 23288 23289 1 180.0000771 15.1670000 2
23280 23279 23288 23286 1 180.0000771 15.1670000 2
23280 23279 23288 23289 1 180.0000771 15.1670000 2
23281 23280 23279 23288 1 180.0000771 15.1670000 2
23282 23280 23279 23288 1 180.0000771 15.1670000 2
23279 23280 23282 23283 1 180.0000771 15.1670000 2
23279 23280 23282 23284 1 180.0000771 15.1670000 2
23281 23280 23282 23283 1 180.0000771 15.1670000 2
23281 23280 23282 23284 1 180.0000771 15.1670000 2
23280 23282 23284 23285 1 180.0000771 15.1670000 2
23280 23282 23284 23286 1 180.0000771 15.1670000 2
23283 23282 23284 23285 1 180.0000771 15.1670000 2
23283 23282 23284 23286 1 180.0000771 15.1670000 2
23280 23284 23282 23283 4 180.0000771 4.6024000 2
23282 23284 23286 23287 1 180.0000771 15.1670000 2
23282 23284 23286 23288 1 180.0000771 15.1670000 2
23285 23284 23286 23287 1 180.0000771 15.1670000 2
23285 23284 23286 23288 1 180.0000771 15.1670000 2
23282 23286 23284 23285 4 180.0000771 4.6024000 2
23279 23286 23288 23289 4 180.0000771 4.6024000 2
23284 23286 23288 23289 1 180.0000771 15.1670000 2
23287 23286 23288 23289 1 180.0000771 15.1670000 2
23279 23288 23286 23284 1 180.0000771 15.1670000 2
23279 23288 23286 23287 1 180.0000771 15.1670000 2
23284 23288 23286 23287 4 180.0000771 4.6024000 2
23290 23291 23292 23293 1 180.0000771 15.1670000 2
23290 23291 23292 23294 1 180.0000771 15.1670000 2
23293 23291 23292 23294 4 180.0000771 4.6024000 2
23290 23291 23300 23292 4 180.0000771 4.6024000 2
23290 23291 23300 23298 1 180.0000771 15.1670000 2
23290 23291 23300 23301 1 180.0000771 15.1670000 2
23292 23291 23300 23298 1 180.0000771 15.1670000 2
23292 23291 23300 23301 1 180.0000771 15.1670000 2
23293 23292 23291 23300 1 180.0000771 15.1670000 2
23294 23292 23291 23300 1 180.0000771 15.1670000 2
23291 23292 23294 23295 1 180.0000771 15.1670000 2
23291 23292 23294 23296 1 180.0000771 15.1670000 2
23293 23292 23294 23295 1 180.0000771 15.1670000 2
23293 23292 23294 23296 1 180.0000771 15.1670000 2
23292 23294 23296 23297 1 180.0000771 15.1670000 2
23292 23294 23296 23298 1 180.0000771 15.1670000 2
23295 23294 23296 23297 1 180.0000771 15.1670000 2
23295 23294 23296 23298 1 180.0000771 15.1670000 2
23292 23296 23294 23295 4 180.0000771 4.6024000 2
23294 23296 23298 23299 1 180.0000771 15.1670000 2
23294 23296 23298 23300 1 180.0000771 15.1670000 2
23297 23296 23298 23299 1 180.0000771 15.1670000 2
23297 23296 23298 23300 1 180.0000771 15.1670000 2
23294 23298 23296 23297 4 180.0000771 4.6024000 2
23291 23298 23300 23301 4 180.0000771 4.6024000 2
23296 23298 23300 23301 1 180.0000771 15.1670000 2
23299 23298 23300 23301 1 180.0000771 15.1670000 2
23291 23300 23298 23296 1 180.0000771 15.1670000 2
23291 23300 23298 23299 1 180.0000771 15.1670000 2
23296 23300 23298 23299 4 180.0000771 4.6024000 2
23302 23303 23304 23305 1 180.0000771 15.1670000 2
23302 23303 23304 23306 1 180.0000771 15.1670000 2
23305 23303 23304 23306 4 180.0000771 4.6024000 2
23302 23303 23312 23304 4 180.0000771 4.6024000 2
23302 23303 23312 23310 1 180.0000771 15.1670000 2
23302 23303 23312 23313 1 180.0000771 15.1670000 2
23304 23303 23312 23310 1 180.0000771 15.1670000 2
23304 23303 23312 23313 1 180.0000771 15.1670000 2
23305 23304 23303 23312 1 180.0000771 15.1670000 2
23306 23304 23303 23312 1 180.0000771 15.1670000 2
23303 23304 23306 23307 1 180.0000771 15.1670000 2
23303 23304 23306 23308 1 180.0000771 15.1670000 2
23305 23304 23306 23307 1 180.0000771 15.1670000 2
23305 23304 23306 23308 1 180.0000771 15.1670000 2
23304 23306 23308 23309 1 180.0000771 15.1670000 2
23304 23306 23308 23310 1 180.0000771 15.1670000 2
23307 23306 23308 23309 1 180.0000771 15.1670000 2
23307 23306 23308 23310 1 180.0000771 15.1670000 2
23304 23308 23306 23307 4 180.0000771 4.6024000 2
23306 23308 23310 23311 1 180.0000771 15.1670000 2
23306 23308 23310 23312 1 180.0000771 15.1670000 2
23309 23308 23310 23311 1 180.0000771 15.1670000 2
23309 23308 23310 23312 1 180.0000771 15.1670000 2
23306 23310 23308 23309 4 180.0000771 4.6024000 2
23303 23310 23312 23313 4 180.0000771 4.6024000 2
23308 23310 23312 23313 1 180.0000771 15.1670000 2
23311 23310 23312 23313 1 180.0000771 15.1670000 2
23303 23312 23310 23308 1 180.0000771 15.1670000 2
23303 23312 23310 23311 1 180.0000771 15.1670000 2
23308 23312 23310 23311 4 180.0000771 4.6024000 2
23314 23315 23316 23317 1 180.0000771 15.1670000 2
23314 23315 23316 23318 1 180.0000771 15.1670000 2
23317 23315 23316 23318 4 180.0000771 4.6024000 2
23314 23315 23324 23316 4 180.0000771 4.6024000 2
23314 23315 23324 23322 1 180.0000771 15.1670000 2
23314 23315 23324 23325 1 180.0000771 15.1670000 2
23316 23315 23324 23322 1 180.0000771 15.1670000 2
23316 23315 23324 23325 1 180.0000771 15.1670000 2
23317 23316 23315 23324 1 180.0000771 15.1670000 2
23318 23316 23315 23324 1 180.0000771 15.1670000 2
23315 23316 23318 23319 1 180.0000771 15.1670000 2
23315 23316 23318 23320 1 180.0000771 15.1670000 2
23317 23316 23318 23319 1 180.0000771 15.1670000 2
23317 23316 23318 23320 1 180.0000771 15.1670000 2
23316 23318 23320 23321 1 180.0000771 15.1670000 2
23316 23318 23320 23322 1 180.0000771 15.1670000 2
23319 23318 23320 23321 1 180.0000771 15.1670000 2
23319 23318 23320 23322 1 180.0000771 15.1670000 2
23316 23320 23318 23319 4 180.0000771 4.6024000 2
23318 23320 23322 23323 1 180.0000771 15.1670000 2
23318 23320 23322 23324 1 180.0000771 15.1670000 2
23321 23320 23322 23323 1 180.0000771 15.1670000 2
23321 23320 23322 23324 1 180.0000771 15.1670000 2
23318 23322 23320 23321 4 180.0000771 4.6024000 2
23315 23322 23324 23325 4 180.0000771 4.6024000 2
23320 23322 23324 23325 1 180.0000771 15.1670000 2
23323 23322 23324 23325 1 180.0000771 15.1670000 2
23315 23324 23322 23320 1 180.0000771 15.1670000 2
23315 23324 23322 23323 1 180.0000771 15.1670000 2
23320 23324 23322 23323 4 180.0000771 4.6024000 2
23326 23327 23328 23329 1 180.0000771 15.1670000 2
23326 23327 23328 23330 1 180.0000771 15.1670000 2
23329 23327 23328 23330 4 180.0000771 4.6024000 2
23326 23327 23336 23328 4 180.0000771 4.6024000 2
23326 23327 23336 23334 1 180.0000771 15.1670000 2
23326 23327 23336 23337 1 180.0000771 15.1670000 2
23328 23327 23336 23334 1 180.0000771 15.1670000 2
23328 23327 23336 23337 1 180.0000771 15.1670000 2
23329 23328 23327 23336 1 180.0000771 15.1670000 2
23330 23328 23327 23336 1 180.0000771 15.1670000 2
23327 23328 23330 23331 1 180.0000771 15.1670000 2
23327 23328 23330 23332 1 180.0000771 15.1670000 2
23329 23328 23330 23331 1 180.0000771 15.1670000 2
23329 23328 23330 23332 1 180.0000771 15.1670000 2
23328 23330 23332 23333 1 180.0000771 15.1670000 2
23328 23330 23332 23334 1 180.0000771 15.1670000 2
23331 23330 23332 23333 1 180.0000771 15.1670000 2
23331 23330 23332 23334 1 180.0000771 15.1670000 2
23328 23332 23330 23331 4 180.0000771 4.6024000 2
23330 23332 23334 23335 1 180.0000771 15.1670000 2
23330 23332 23334 23336 1 180.0000771 15.1670000 2
23333 23332 23334 23335 1 180.0000771 15.1670000 2
23333 23332 23334 23336 1 180.0000771 15.1670000 2
23330 23334 23332 23333 4 180.0000771 4.6024000 2
23327 23334 23336 23337 4 180.0000771 4.6024000 2
23332 23334 23336 23337 1 180.0000771 15.1670000 2
23335 23334 23336 23337 1 180.0000771 15.1670000 2
23327 23336 23334 23332 1 180.0000771 15.1670000 2
23327 23336 23334 23335 1 180.0000771 15.1670000 2
23332 23336 23334 23335 4 180.0000771 4.6024000 2
23338 23339 23340 23341 1 180.0000771 15.1670000 2
23338 23339 23340 23342 1 180.0000771 15.1670000 2
23341 23339 23340 23342 4 180.0000771 4.6024000 2
23338 23339 23348 23340 4 180.0000771 4.6024000 2
23338 23339 23348 23346 1 180.0000771 15.1670000 2
23338 23339 23348 23349 1 180.0000771 15.1670000 2
23340 23339 23348 23346 1 180.0000771 15.1670000 2
23340 23339 23348 23349 1 180.0000771 15.1670000 2
23341 23340 23339 23348 1 180.0000771 15.1670000 2
23342 23340 23339 23348 1 180.0000771 15.1670000 2
23339 23340 23342 23343 1 180.0000771 15.1670000 2
23339 23340 23342 23344 1 180.0000771 15.1670000 2
23341 23340 23342 23343 1 180.0000771 15.1670000 2
23341 23340 23342 23344 1 180.0000771 15.1670000 2
23340 23342 23344 23345 1 180.0000771 15.1670000 2
23340 23342 23344 23346 1 180.0000771 15.1670000 2
23343 23342 23344 23345 1 180.0000771 15.1670000 2
23343 23342 23344 23346 1 180.0000771 15.1670000 2
23340 23344 23342 23343 4 180.0000771 4.6024000 2
23342 23344 23346 23347 1 180.0000771 15.1670000 2
23342 23344 23346 23348 1 180.0000771 15.1670000 2
23345 23344 23346 23347 1 180.0000771 15.1670000 2
23345 23344 23346 23348 1 180.0000771 15.1670000 2
23342 23346 23344 23345 4 180.0000771 4.6024000 2
23339 23346 23348 23349 4 180.0000771 4.6024000 2
23344 23346 23348 23349 1 180.0000771 15.1670000 2
23347 23346 23348 23349 1 180.0000771 15.1670000 2
23339 23348 23346 23344 1 180.0000771 15.1670000 2
23339 23348 23346 23347 1 180.0000771 15.1670000 2
23344 23348 23346 23347 4 180.0000771 4.6024000 2
23350 23351 23352 23353 1 180.0000771 15.1670000 2
23350 23351 23352 23354 1 180.0000771 15.1670000 2
23353 23351 23352 23354 4 180.0000771 4.6024000 2
23350 23351 23360 23352 4 180.0000771 4.6024000 2
23350 23351 23360 23358 1 180.0000771 15.1670000 2
23350 23351 23360 23361 1 180.0000771 15.1670000 2
23352 23351 23360 23358 1 180.0000771 15.1670000 2
23352 23351 23360 23361 1 180.0000771 15.1670000 2
23353 23352 23351 23360 1 180.0000771 15.1670000 2
23354 23352 23351 23360 1 180.0000771 15.1670000 2
23351 23352 23354 23355 1 180.0000771 15.1670000 2
23351 23352 23354 23356 1 180.0000771 15.1670000 2
23353 23352 23354 23355 1 180.0000771 15.1670000 2
23353 23352 23354 23356 1 180.0000771 15.1670000 2
23352 23354 23356 23357 1 180.0000771 15.1670000 2
23352 23354 23356 23358 1 180.0000771 15.1670000 2
23355 23354 23356 23357 1 180.0000771 15.1670000 2
23355 23354 23356 23358 1 180.0000771 15.1670000 2
23352 23356 23354 23355 4 180.0000771 4.6024000 2
23354 23356 23358 23359 1 180.0000771 15.1670000 2
23354 23356 23358 23360 1 180.0000771 15.1670000 2
23357 23356 23358 23359 1 180.0000771 15.1670000 2
23357 23356 23358 23360 1 180.0000771 15.1670000 2
23354 23358 23356 23357 4 180.0000771 4.6024000 2
23351 23358 23360 23361 4 180.0000771 4.6024000 2
23356 23358 23360 23361 1 180.0000771 15.1670000 2
23359 23358 23360 23361 1 180.0000771 15.1670000 2
23351 23360 23358 23356 1 180.0000771 15.1670000 2
23351 23360 23358 23359 1 180.0000771 15.1670000 2
23356 23360 23358 23359 4 180.0000771 4.6024000 2
23362 23363 23364 23365 1 180.0000771 15.1670000 2
23362 23363 23364 23366 1 180.0000771 15.1670000 2
23365 23363 23364 23366 4 180.0000771 4.6024000 2
23362 23363 23372 23364 4 180.0000771 4.6024000 2
23362 23363 23372 23370 1 180.0000771 15.1670000 2
23362 23363 23372 23373 1 180.0000771 15.1670000 2
23364 23363 23372 23370 1 180.0000771 15.1670000 2
23364 23363 23372 23373 1 180.0000771 15.1670000 2
23365 23364 23363 23372 1 180.0000771 15.1670000 2
23366 23364 23363 23372 1 180.0000771 15.1670000 2
23363 23364 23366 23367 1 180.0000771 15.1670000 2
23363 23364 23366 23368 1 180.0000771 15.1670000 2
23365 23364 23366 23367 1 180.0000771 15.1670000 2
23365 23364 23366 23368 1 180.0000771 15.1670000 2
23364 23366 23368 23369 1 180.0000771 15.1670000 2
23364 23366 23368 23370 1 180.0000771 15.1670000 2
23367 23366 23368 23369 1 180.0000771 15.1670000 2
23367 23366 23368 23370 1 180.0000771 15.1670000 2
23364 23368 23366 23367 4 180.0000771 4.6024000 2
23366 23368 23370 23371 1 180.0000771 15.1670000 2
23366 23368 23370 23372 1 180.0000771 15.1670000 2
23369 23368 23370 23371 1 180.0000771 15.1670000 2
23369 23368 23370 23372 1 180.0000771 15.1670000 2
23366 23370 23368 23369 4 180.0000771 4.6024000 2
23363 23370 23372 23373 4 180.0000771 4.6024000 2
23368 23370 23372 23373 1 180.0000771 15.1670000 2
23371 23370 23372 23373 1 180.0000771 15.1670000 2
23363 23372 23370 23368 1 180.0000771 15.1670000 2
23363 23372 23370 23371 1 180.0000771 15.1670000 2
23368 23372 23370 23371 4 180.0000771 4.6024000 2
23374 23375 23376 23377 1 180.0000771 15.1670000 2
23374 23375 23376 23378 1 180.0000771 15.1670000 2
23377 23375 23376 23378 4 180.0000771 4.6024000 2
23374 23375 23384 23376 4 180.0000771 4.6024000 2
23374 23375 23384 23382 1 180.0000771 15.1670000 2
23374 23375 23384 23385 1 180.0000771 15.1670000 2
23376 23375 23384 23382 1 180.0000771 15.1670000 2
23376 23375 23384 23385 1 180.0000771 15.1670000 2
23377 23376 23375 23384 1 180.0000771 15.1670000 2
23378 23376 23375 23384 1 180.0000771 15.1670000 2
23375 23376 23378 23379 1 180.0000771 15.1670000 2
23375 23376 23378 23380 1 180.0000771 15.1670000 2
23377 23376 23378 23379 1 180.0000771 15.1670000 2
23377 23376 23378 23380 1 180.0000771 15.1670000 2
23376 23378 23380 23381 1 180.0000771 15.1670000 2
23376 23378 23380 23382 1 180.0000771 15.1670000 2
23379 23378 23380 23381 1 180.0000771 15.1670000 2
23379 23378 23380 23382 1 180.0000771 15.1670000 2
23376 23380 23378 23379 4 180.0000771 4.6024000 2
23378 23380 23382 23383 1 180.0000771 15.1670000 2
23378 23380 23382 23384 1 180.0000771 15.1670000 2
23381 23380 23382 23383 1 180.0000771 15.1670000 2
23381 23380 23382 23384 1 180.0000771 15.1670000 2
23378 23382 23380 23381 4 180.0000771 4.6024000 2
23375 23382 23384 23385 4 180.0000771 4.6024000 2
23380 23382 23384 23385 1 180.0000771 15.1670000 2
23383 23382 23384 23385 1 180.0000771 15.1670000 2
23375 23384 23382 23380 1 180.0000771 15.1670000 2
23375 23384 23382 23383 1 180.0000771 15.1670000 2
23380 23384 23382 23383 4 180.0000771 4.6024000 2
23386 23387 23388 23389 1 180.0000771 15.1670000 2
23386 23387 23388 23390 1 180.0000771 15.1670000 2
23389 23387 23388 23390 4 180.0000771 4.6024000 2
23386 23387 23396 23388 4 180.0000771 4.6024000 2
23386 23387 23396 23394 1 180.0000771 15.1670000 2
23386 23387 23396 23397 1 180.0000771 15.1670000 2
23388 23387 23396 23394 1 180.0000771 15.1670000 2
23388 23387 23396 23397 1 180.0000771 15.1670000 2
23389 23388 23387 23396 1 180.0000771 15.1670000 2
23390 23388 23387 23396 1 180.0000771 15.1670000 2
23387 23388 23390 23391 1 180.0000771 15.1670000 2
23387 23388 23390 23392 1 180.0000771 15.1670000 2
23389 23388 23390 23391 1 180.0000771 15.1670000 2
23389 23388 23390 23392 1 180.0000771 15.1670000 2
23388 23390 23392 23393 1 180.0000771 15.1670000 2
23388 23390 23392 23394 1 180.0000771 15.1670000 2
23391 23390 23392 23393 1 180.0000771 15.1670000 2
23391 23390 23392 23394 1 180.0000771 15.1670000 2
23388 23392 23390 23391 4 180.0000771 4.6024000 2
23390 23392 23394 23395 1 180.0000771 15.1670000 2
23390 23392 23394 23396 1 180.0000771 15.1670000 2
23393 23392 23394 23395 1 180.0000771 15.1670000 2
23393 23392 23394 23396 1 180.0000771 15.1670000 2
23390 23394 23392 23393 4 180.0000771 4.6024000 2
23387 23394 23396 23397 4 180.0000771 4.6024000 2
23392 23394 23396 23397 1 180.0000771 15.1670000 2
23395 23394 23396 23397 1 180.0000771 15.1670000 2
23387 23396 23394 23392 1 180.0000771 15.1670000 2
23387 23396 23394 23395 1 180.0000771 15.1670000 2
23392 23396 23394 23395 4 180.0000771 4.6024000 2
23398 23399 23400 23401 1 180.0000771 15.1670000 2
23398 23399 23400 23402 1 180.0000771 15.1670000 2
23401 23399 23400 23402 4 180.0000771 4.6024000 2
23398 23399 23408 23400 4 180.0000771 4.6024000 2
23398 23399 23408 23406 1 180.0000771 15.1670000 2
23398 23399 23408 23409 1 180.0000771 15.1670000 2
23400 23399 23408 23406 1 180.0000771 15.1670000 2
23400 23399 23408 23409 1 180.0000771 15.1670000 2
23401 23400 23399 23408 1 180.0000771 15.1670000 2
23402 23400 23399 23408 1 180.0000771 15.1670000 2
23399 23400 23402 23403 1 180.0000771 15.1670000 2
23399 23400 23402 23404 1 180.0000771 15.1670000 2
23401 23400 23402 23403 1 180.0000771 15.1670000 2
23401 23400 23402 23404 1 180.0000771 15.1670000 2
23400 23402 23404 23405 1 180.0000771 15.1670000 2
23400 23402 23404 23406 1 180.0000771 15.1670000 2
23403 23402 23404 23405 1 180.0000771 15.1670000 2
23403 23402 23404 23406 1 180.0000771 15.1670000 2
23400 23404 23402 23403 4 180.0000771 4.6024000 2
23402 23404 23406 23407 1 180.0000771 15.1670000 2
23402 23404 23406 23408 1 180.0000771 15.1670000 2
23405 23404 23406 23407 1 180.0000771 15.1670000 2
23405 23404 23406 23408 1 180.0000771 15.1670000 2
23402 23406 23404 23405 4 180.0000771 4.6024000 2
23399 23406 23408 23409 4 180.0000771 4.6024000 2
23404 23406 23408 23409 1 180.0000771 15.1670000 2
23407 23406 23408 23409 1 180.0000771 15.1670000 2
23399 23408 23406 23404 1 180.0000771 15.1670000 2
23399 23408 23406 23407 1 180.0000771 15.1670000 2
23404 23408 23406 23407 4 180.0000771 4.6024000 2
23410 23411 23412 23413 1 180.0000771 15.1670000 2
23410 23411 23412 23414 1 180.0000771 15.1670000 2
23413 23411 23412 23414 4 180.0000771 4.6024000 2
23410 23411 23420 23412 4 180.0000771 4.6024000 2
23410 23411 23420 23418 1 180.0000771 15.1670000 2
23410 23411 23420 23421 1 180.0000771 15.1670000 2
23412 23411 23420 23418 1 180.0000771 15.1670000 2
23412 23411 23420 23421 1 180.0000771 15.1670000 2
23413 23412 23411 23420 1 180.0000771 15.1670000 2
23414 23412 23411 23420 1 180.0000771 15.1670000 2
23411 23412 23414 23415 1 180.0000771 15.1670000 2
23411 23412 23414 23416 1 180.0000771 15.1670000 2
23413 23412 23414 23415 1 180.0000771 15.1670000 2
23413 23412 23414 23416 1 180.0000771 15.1670000 2
23412 23414 23416 23417 1 180.0000771 15.1670000 2
23412 23414 23416 23418 1 180.0000771 15.1670000 2
23415 23414 23416 23417 1 180.0000771 15.1670000 2
23415 23414 23416 23418 1 180.0000771 15.1670000 2
23412 23416 23414 23415 4 180.0000771 4.6024000 2
23414 23416 23418 23419 1 180.0000771 15.1670000 2
23414 23416 23418 23420 1 180.0000771 15.1670000 2
23417 23416 23418 23419 1 180.0000771 15.1670000 2
23417 23416 23418 23420 1 180.0000771 15.1670000 2
23414 23418 23416 23417 4 180.0000771 4.6024000 2
23411 23418 23420 23421 4 180.0000771 4.6024000 2
23416 23418 23420 23421 1 180.0000771 15.1670000 2
23419 23418 23420 23421 1 180.0000771 15.1670000 2
23411 23420 23418 23416 1 180.0000771 15.1670000 2
23411 23420 23418 23419 1 180.0000771 15.1670000 2
23416 23420 23418 23419 4 180.0000771 4.6024000 2
23422 23423 23424 23425 1 180.0000771 15.1670000 2
23422 23423 23424 23426 1 180.0000771 15.1670000 2
23425 23423 23424 23426 4 180.0000771 4.6024000 2
23422 23423 23432 23424 4 180.0000771 4.6024000 2
23422 23423 23432 23430 1 180.0000771 15.1670000 2
23422 23423 23432 23433 1 180.0000771 15.1670000 2
23424 23423 23432 23430 1 180.0000771 15.1670000 2
23424 23423 23432 23433 1 180.0000771 15.1670000 2
23425 23424 23423 23432 1 180.0000771 15.1670000 2
23426 23424 23423 23432 1 180.0000771 15.1670000 2
23423 23424 23426 23427 1 180.0000771 15.1670000 2
23423 23424 23426 23428 1 180.0000771 15.1670000 2
23425 23424 23426 23427 1 180.0000771 15.1670000 2
23425 23424 23426 23428 1 180.0000771 15.1670000 2
23424 23426 23428 23429 1 180.0000771 15.1670000 2
23424 23426 23428 23430 1 180.0000771 15.1670000 2
23427 23426 23428 23429 1 180.0000771 15.1670000 2
23427 23426 23428 23430 1 180.0000771 15.1670000 2
23424 23428 23426 23427 4 180.0000771 4.6024000 2
23426 23428 23430 23431 1 180.0000771 15.1670000 2
23426 23428 23430 23432 1 180.0000771 15.1670000 2
23429 23428 23430 23431 1 180.0000771 15.1670000 2
23429 23428 23430 23432 1 180.0000771 15.1670000 2
23426 23430 23428 23429 4 180.0000771 4.6024000 2
23423 23430 23432 23433 4 180.0000771 4.6024000 2
23428 23430 23432 23433 1 180.0000771 15.1670000 2
23431 23430 23432 23433 1 180.0000771 15.1670000 2
23423 23432 23430 23428 1 180.0000771 15.1670000 2
23423 23432 23430 23431 1 180.0000771 15.1670000 2
23428 23432 23430 23431 4 180.0000771 4.6024000 2
23434 23435 23436 23437 1 180.0000771 15.1670000 2
23434 23435 23436 23438 1 180.0000771 15.1670000 2
23437 23435 23436 23438 4 180.0000771 4.6024000 2
23434 23435 23444 23436 4 180.0000771 4.6024000 2
23434 23435 23444 23442 1 180.0000771 15.1670000 2
23434 23435 23444 23445 1 180.0000771 15.1670000 2
23436 23435 23444 23442 1 180.0000771 15.1670000 2
23436 23435 23444 23445 1 180.0000771 15.1670000 2
23437 23436 23435 23444 1 180.0000771 15.1670000 2
23438 23436 23435 23444 1 180.0000771 15.1670000 2
23435 23436 23438 23439 1 180.0000771 15.1670000 2
23435 23436 23438 23440 1 180.0000771 15.1670000 2
23437 23436 23438 23439 1 180.0000771 15.1670000 2
23437 23436 23438 23440 1 180.0000771 15.1670000 2
23436 23438 23440 23441 1 180.0000771 15.1670000 2
23436 23438 23440 23442 1 180.0000771 15.1670000 2
23439 23438 23440 23441 1 180.0000771 15.1670000 2
23439 23438 23440 23442 1 180.0000771 15.1670000 2
23436 23440 23438 23439 4 180.0000771 4.6024000 2
23438 23440 23442 23443 1 180.0000771 15.1670000 2
23438 23440 23442 23444 1 180.0000771 15.1670000 2
23441 23440 23442 23443 1 180.0000771 15.1670000 2
23441 23440 23442 23444 1 180.0000771 15.1670000 2
23438 23442 23440 23441 4 180.0000771 4.6024000 2
23435 23442 23444 23445 4 180.0000771 4.6024000 2
23440 23442 23444 23445 1 180.0000771 15.1670000 2
23443 23442 23444 23445 1 180.0000771 15.1670000 2
23435 23444 23442 23440 1 180.0000771 15.1670000 2
23435 23444 23442 23443 1 180.0000771 15.1670000 2
23440 23444 23442 23443 4 180.0000771 4.6024000 2
23446 23447 23448 23449 1 180.0000771 15.1670000 2
23446 23447 23448 23450 1 180.0000771 15.1670000 2
23449 23447 23448 23450 4 180.0000771 4.6024000 2
23446 23447 23456 23448 4 180.0000771 4.6024000 2
23446 23447 23456 23454 1 180.0000771 15.1670000 2
23446 23447 23456 23457 1 180.0000771 15.1670000 2
23448 23447 23456 23454 1 180.0000771 15.1670000 2
23448 23447 23456 23457 1 180.0000771 15.1670000 2
23449 23448 23447 23456 1 180.0000771 15.1670000 2
23450 23448 23447 23456 1 180.0000771 15.1670000 2
23447 23448 23450 23451 1 180.0000771 15.1670000 2
23447 23448 23450 23452 1 180.0000771 15.1670000 2
23449 23448 23450 23451 1 180.0000771 15.1670000 2
23449 23448 23450 23452 1 180.0000771 15.1670000 2
23448 23450 23452 23453 1 180.0000771 15.1670000 2
23448 23450 23452 23454 1 180.0000771 15.1670000 2
23451 23450 23452 23453 1 180.0000771 15.1670000 2
23451 23450 23452 23454 1 180.0000771 15.1670000 2
23448 23452 23450 23451 4 180.0000771 4.6024000 2
23450 23452 23454 23455 1 180.0000771 15.1670000 2
23450 23452 23454 23456 1 180.0000771 15.1670000 2
23453 23452 23454 23455 1 180.0000771 15.1670000 2
23453 23452 23454 23456 1 180.0000771 15.1670000 2
23450 23454 23452 23453 4 180.0000771 4.6024000 2
23447 23454 23456 23457 4 180.0000771 4.6024000 2
23452 23454 23456 23457 1 180.0000771 15.1670000 2
23455 23454 23456 23457 1 180.0000771 15.1670000 2
23447 23456 23454 23452 1 180.0000771 15.1670000 2
23447 23456 23454 23455 1 180.0000771 15.1670000 2
23452 23456 23454 23455 4 180.0000771 4.6024000 2
23458 23459 23460 23461 1 180.0000771 15.1670000 2
23458 23459 23460 23462 1 180.0000771 15.1670000 2
23461 23459 23460 23462 4 180.0000771 4.6024000 2
23458 23459 23468 23460 4 180.0000771 4.6024000 2
23458 23459 23468 23466 1 180.0000771 15.1670000 2
23458 23459 23468 23469 1 180.0000771 15.1670000 2
23460 23459 23468 23466 1 180.0000771 15.1670000 2
23460 23459 23468 23469 1 180.0000771 15.1670000 2
23461 23460 23459 23468 1 180.0000771 15.1670000 2
23462 23460 23459 23468 1 180.0000771 15.1670000 2
23459 23460 23462 23463 1 180.0000771 15.1670000 2
23459 23460 23462 23464 1 180.0000771 15.1670000 2
23461 23460 23462 23463 1 180.0000771 15.1670000 2
23461 23460 23462 23464 1 180.0000771 15.1670000 2
23460 23462 23464 23465 1 180.0000771 15.1670000 2
23460 23462 23464 23466 1 180.0000771 15.1670000 2
23463 23462 23464 23465 1 180.0000771 15.1670000 2
23463 23462 23464 23466 1 180.0000771 15.1670000 2
23460 23464 23462 23463 4 180.0000771 4.6024000 2
23462 23464 23466 23467 1 180.0000771 15.1670000 2
23462 23464 23466 23468 1 180.0000771 15.1670000 2
23465 23464 23466 23467 1 180.0000771 15.1670000 2
23465 23464 23466 23468 1 180.0000771 15.1670000 2
23462 23466 23464 23465 4 180.0000771 4.6024000 2
23459 23466 23468 23469 4 180.0000771 4.6024000 2
23464 23466 23468 23469 1 180.0000771 15.1670000 2
23467 23466 23468 23469 1 180.0000771 15.1670000 2
23459 23468 23466 23464 1 180.0000771 15.1670000 2
23459 23468 23466 23467 1 180.0000771 15.1670000 2
23464 23468 23466 23467 4 180.0000771 4.6024000 2
23470 23471 23472 23473 1 180.0000771 15.1670000 2
23470 23471 23472 23474 1 180.0000771 15.1670000 2
23473 23471 23472 23474 4 180.0000771 4.6024000 2
23470 23471 23480 23472 4 180.0000771 4.6024000 2
23470 23471 23480 23478 1 180.0000771 15.1670000 2
23470 23471 23480 23481 1 180.0000771 15.1670000 2
23472 23471 23480 23478 1 180.0000771 15.1670000 2
23472 23471 23480 23481 1 180.0000771 15.1670000 2
23473 23472 23471 23480 1 180.0000771 15.1670000 2
23474 23472 23471 23480 1 180.0000771 15.1670000 2
23471 23472 23474 23475 1 180.0000771 15.1670000 2
23471 23472 23474 23476 1 180.0000771 15.1670000 2
23473 23472 23474 23475 1 180.0000771 15.1670000 2
23473 23472 23474 23476 1 180.0000771 15.1670000 2
23472 23474 23476 23477 1 180.0000771 15.1670000 2
23472 23474 23476 23478 1 180.0000771 15.1670000 2
23475 23474 23476 23477 1 180.0000771 15.1670000 2
23475 23474 23476 23478 1 180.0000771 15.1670000 2
23472 23476 23474 23475 4 180.0000771 4.6024000 2
23474 23476 23478 23479 1 180.0000771 15.1670000 2
23474 23476 23478 23480 1 180.0000771 15.1670000 2
23477 23476 23478 23479 1 180.0000771 15.1670000 2
23477 23476 23478 23480 1 180.0000771 15.1670000 2
23474 23478 23476 23477 4 180.0000771 4.6024000 2
23471 23478 23480 23481 4 180.0000771 4.6024000 2
23476 23478 23480 23481 1 180.0000771 15.1670000 2
23479 23478 23480 23481 1 180.0000771 15.1670000 2
23471 23480 23478 23476 1 180.0000771 15.1670000 2
23471 23480 23478 23479 1 180.0000771 15.1670000 2
23476 23480 23478 23479 4 180.0000771 4.6024000 2
23482 23483 23484 23485 1 180.0000771 15.1670000 2
23482 23483 23484 23486 1 180.0000771 15.1670000 2
23485 23483 23484 23486 4 180.0000771 4.6024000 2
23482 23483 23492 23484 4 180.0000771 4.6024000 2
23482 23483 23492 23490 1 180.0000771 15.1670000 2
23482 23483 23492 23493 1 180.0000771 15.1670000 2
23484 23483 23492 23490 1 180.0000771 15.1670000 2
23484 23483 23492 23493 1 180.0000771 15.1670000 2
23485 23484 23483 23492 1 180.0000771 15.1670000 2
23486 23484 23483 23492 1 180.0000771 15.1670000 2
23483 23484 23486 23487 1 180.0000771 15.1670000 2
23483 23484 23486 23488 1 180.0000771 15.1670000 2
23485 23484 23486 23487 1 180.0000771 15.1670000 2
23485 23484 23486 23488 1 180.0000771 15.1670000 2
23484 23486 23488 23489 1 180.0000771 15.1670000 2
23484 23486 23488 23490 1 180.0000771 15.1670000 2
23487 23486 23488 23489 1 180.0000771 15.1670000 2
23487 23486 23488 23490 1 180.0000771 15.1670000 2
23484 23488 23486 23487 4 180.0000771 4.6024000 2
23486 23488 23490 23491 1 180.0000771 15.1670000 2
23486 23488 23490 23492 1 180.0000771 15.1670000 2
23489 23488 23490 23491 1 180.0000771 15.1670000 2
23489 23488 23490 23492 1 180.0000771 15.1670000 2
23486 23490 23488 23489 4 180.0000771 4.6024000 2
23483 23490 23492 23493 4 180.0000771 4.6024000 2
23488 23490 23492 23493 1 180.0000771 15.1670000 2
23491 23490 23492 23493 1 180.0000771 15.1670000 2
23483 23492 23490 23488 1 180.0000771 15.1670000 2
23483 23492 23490 23491 1 180.0000771 15.1670000 2
23488 23492 23490 23491 4 180.0000771 4.6024000 2
23494 23495 23496 23497 1 180.0000771 15.1670000 2
23494 23495 23496 23498 1 180.0000771 15.1670000 2
23497 23495 23496 23498 4 180.0000771 4.6024000 2
23494 23495 23504 23496 4 180.0000771 4.6024000 2
23494 23495 23504 23502 1 180.0000771 15.1670000 2
23494 23495 23504 23505 1 180.0000771 15.1670000 2
23496 23495 23504 23502 1 180.0000771 15.1670000 2
23496 23495 23504 23505 1 180.0000771 15.1670000 2
23497 23496 23495 23504 1 180.0000771 15.1670000 2
23498 23496 23495 23504 1 180.0000771 15.1670000 2
23495 23496 23498 23499 1 180.0000771 15.1670000 2
23495 23496 23498 23500 1 180.0000771 15.1670000 2
23497 23496 23498 23499 1 180.0000771 15.1670000 2
23497 23496 23498 23500 1 180.0000771 15.1670000 2
23496 23498 23500 23501 1 180.0000771 15.1670000 2
23496 23498 23500 23502 1 180.0000771 15.1670000 2
23499 23498 23500 23501 1 180.0000771 15.1670000 2
23499 23498 23500 23502 1 180.0000771 15.1670000 2
23496 23500 23498 23499 4 180.0000771 4.6024000 2
23498 23500 23502 23503 1 180.0000771 15.1670000 2
23498 23500 23502 23504 1 180.0000771 15.1670000 2
23501 23500 23502 23503 1 180.0000771 15.1670000 2
23501 23500 23502 23504 1 180.0000771 15.1670000 2
23498 23502 23500 23501 4 180.0000771 4.6024000 2
23495 23502 23504 23505 4 180.0000771 4.6024000 2
23500 23502 23504 23505 1 180.0000771 15.1670000 2
23503 23502 23504 23505 1 180.0000771 15.1670000 2
23495 23504 23502 23500 1 180.0000771 15.1670000 2
23495 23504 23502 23503 1 180.0000771 15.1670000 2
23500 23504 23502 23503 4 180.0000771 4.6024000 2
23506 23507 23508 23509 1 180.0000771 15.1670000 2
23506 23507 23508 23510 1 180.0000771 15.1670000 2
23509 23507 23508 23510 4 180.0000771 4.6024000 2
23506 23507 23516 23508 4 180.0000771 4.6024000 2
23506 23507 23516 23514 1 180.0000771 15.1670000 2
23506 23507 23516 23517 1 180.0000771 15.1670000 2
23508 23507 23516 23514 1 180.0000771 15.1670000 2
23508 23507 23516 23517 1 180.0000771 15.1670000 2
23509 23508 23507 23516 1 180.0000771 15.1670000 2
23510 23508 23507 23516 1 180.0000771 15.1670000 2
23507 23508 23510 23511 1 180.0000771 15.1670000 2
23507 23508 23510 23512 1 180.0000771 15.1670000 2
23509 23508 23510 23511 1 180.0000771 15.1670000 2
23509 23508 23510 23512 1 180.0000771 15.1670000 2
23508 23510 23512 23513 1 180.0000771 15.1670000 2
23508 23510 23512 23514 1 180.0000771 15.1670000 2
23511 23510 23512 23513 1 180.0000771 15.1670000 2
23511 23510 23512 23514 1 180.0000771 15.1670000 2
23508 23512 23510 23511 4 180.0000771 4.6024000 2
23510 23512 23514 23515 1 180.0000771 15.1670000 2
23510 23512 23514 23516 1 180.0000771 15.1670000 2
23513 23512 23514 23515 1 180.0000771 15.1670000 2
23513 23512 23514 23516 1 180.0000771 15.1670000 2
23510 23514 23512 23513 4 180.0000771 4.6024000 2
23507 23514 23516 23517 4 180.0000771 4.6024000 2
23512 23514 23516 23517 1 180.0000771 15.1670000 2
23515 23514 23516 23517 1 180.0000771 15.1670000 2
23507 23516 23514 23512 1 180.0000771 15.1670000 2
23507 23516 23514 23515 1 180.0000771 15.1670000 2
23512 23516 23514 23515 4 180.0000771 4.6024000 2
23518 23519 23520 23521 1 180.0000771 15.1670000 2
23518 23519 23520 23522 1 180.0000771 15.1670000 2
23521 23519 23520 23522 4 180.0000771 4.6024000 2
23518 23519 23528 23520 4 180.0000771 4.6024000 2
23518 23519 23528 23526 1 180.0000771 15.1670000 2
23518 23519 23528 23529 1 180.0000771 15.1670000 2
23520 23519 23528 23526 1 180.0000771 15.1670000 2
23520 23519 23528 23529 1 180.0000771 15.1670000 2
23521 23520 23519 23528 1 180.0000771 15.1670000 2
23522 23520 23519 23528 1 180.0000771 15.1670000 2
23519 23520 23522 23523 1 180.0000771 15.1670000 2
23519 23520 23522 23524 1 180.0000771 15.1670000 2
23521 23520 23522 23523 1 180.0000771 15.1670000 2
23521 23520 23522 23524 1 180.0000771 15.1670000 2
23520 23522 23524 23525 1 180.0000771 15.1670000 2
23520 23522 23524 23526 1 180.0000771 15.1670000 2
23523 23522 23524 23525 1 180.0000771 15.1670000 2
23523 23522 23524 23526 1 180.0000771 15.1670000 2
23520 23524 23522 23523 4 180.0000771 4.6024000 2
23522 23524 23526 23527 1 180.0000771 15.1670000 2
23522 23524 23526 23528 1 180.0000771 15.1670000 2
23525 23524 23526 23527 1 180.0000771 15.1670000 2
23525 23524 23526 23528 1 180.0000771 15.1670000 2
23522 23526 23524 23525 4 180.0000771 4.6024000 2
23519 23526 23528 23529 4 180.0000771 4.6024000 2
23524 23526 23528 23529 1 180.0000771 15.1670000 2
23527 23526 23528 23529 1 180.0000771 15.1670000 2
23519 23528 23526 23524 1 180.0000771 15.1670000 2
23519 23528 23526 23527 1 180.0000771 15.1670000 2
23524 23528 23526 23527 4 180.0000771 4.6024000 2
23530 23531 23532 23533 1 180.0000771 15.1670000 2
23530 23531 23532 23534 1 180.0000771 15.1670000 2
23533 23531 23532 23534 4 180.0000771 4.6024000 2
23530 23531 23540 23532 4 180.0000771 4.6024000 2
23530 23531 23540 23538 1 180.0000771 15.1670000 2
23530 23531 23540 23541 1 180.0000771 15.1670000 2
23532 23531 23540 23538 1 180.0000771 15.1670000 2
23532 23531 23540 23541 1 180.0000771 15.1670000 2
23533 23532 23531 23540 1 180.0000771 15.1670000 2
23534 23532 23531 23540 1 180.0000771 15.1670000 2
23531 23532 23534 23535 1 180.0000771 15.1670000 2
23531 23532 23534 23536 1 180.0000771 15.1670000 2
23533 23532 23534 23535 1 180.0000771 15.1670000 2
23533 23532 23534 23536 1 180.0000771 15.1670000 2
23532 23534 23536 23537 1 180.0000771 15.1670000 2
23532 23534 23536 23538 1 180.0000771 15.1670000 2
23535 23534 23536 23537 1 180.0000771 15.1670000 2
23535 23534 23536 23538 1 180.0000771 15.1670000 2
23532 23536 23534 23535 4 180.0000771 4.6024000 2
23534 23536 23538 23539 1 180.0000771 15.1670000 2
23534 23536 23538 23540 1 180.0000771 15.1670000 2
23537 23536 23538 23539 1 180.0000771 15.1670000 2
23537 23536 23538 23540 1 180.0000771 15.1670000 2
23534 23538 23536 23537 4 180.0000771 4.6024000 2
23531 23538 23540 23541 4 180.0000771 4.6024000 2
23536 23538 23540 23541 1 180.0000771 15.1670000 2
23539 23538 23540 23541 1 180.0000771 15.1670000 2
23531 23540 23538 23536 1 180.0000771 15.1670000 2
23531 23540 23538 23539 1 180.0000771 15.1670000 2
23536 23540 23538 23539 4 180.0000771 4.6024000 2
23542 23543 23544 23545 1 180.0000771 15.1670000 2
23542 23543 23544 23546 1 180.0000771 15.1670000 2
23545 23543 23544 23546 4 180.0000771 4.6024000 2
23542 23543 23552 23544 4 180.0000771 4.6024000 2
23542 23543 23552 23550 1 180.0000771 15.1670000 2
23542 23543 23552 23553 1 180.0000771 15.1670000 2
23544 23543 23552 23550 1 180.0000771 15.1670000 2
23544 23543 23552 23553 1 180.0000771 15.1670000 2
23545 23544 23543 23552 1 180.0000771 15.1670000 2
23546 23544 23543 23552 1 180.0000771 15.1670000 2
23543 23544 23546 23547 1 180.0000771 15.1670000 2
23543 23544 23546 23548 1 180.0000771 15.1670000 2
23545 23544 23546 23547 1 180.0000771 15.1670000 2
23545 23544 23546 23548 1 180.0000771 15.1670000 2
23544 23546 23548 23549 1 180.0000771 15.1670000 2
23544 23546 23548 23550 1 180.0000771 15.1670000 2
23547 23546 23548 23549 1 180.0000771 15.1670000 2
23547 23546 23548 23550 1 180.0000771 15.1670000 2
23544 23548 23546 23547 4 180.0000771 4.6024000 2
23546 23548 23550 23551 1 180.0000771 15.1670000 2
23546 23548 23550 23552 1 180.0000771 15.1670000 2
23549 23548 23550 23551 1 180.0000771 15.1670000 2
23549 23548 23550 23552 1 180.0000771 15.1670000 2
23546 23550 23548 23549 4 180.0000771 4.6024000 2
23543 23550 23552 23553 4 180.0000771 4.6024000 2
23548 23550 23552 23553 1 180.0000771 15.1670000 2
23551 23550 23552 23553 1 180.0000771 15.1670000 2
23543 23552 23550 23548 1 180.0000771 15.1670000 2
23543 23552 23550 23551 1 180.0000771 15.1670000 2
23548 23552 23550 23551 4 180.0000771 4.6024000 2
23554 23555 23556 23557 1 180.0000771 15.1670000 2
23554 23555 23556 23558 1 180.0000771 15.1670000 2
23557 23555 23556 23558 4 180.0000771 4.6024000 2
23554 23555 23564 23556 4 180.0000771 4.6024000 2
23554 23555 23564 23562 1 180.0000771 15.1670000 2
23554 23555 23564 23565 1 180.0000771 15.1670000 2
23556 23555 23564 23562 1 180.0000771 15.1670000 2
23556 23555 23564 23565 1 180.0000771 15.1670000 2
23557 23556 23555 23564 1 180.0000771 15.1670000 2
23558 23556 23555 23564 1 180.0000771 15.1670000 2
23555 23556 23558 23559 1 180.0000771 15.1670000 2
23555 23556 23558 23560 1 180.0000771 15.1670000 2
23557 23556 23558 23559 1 180.0000771 15.1670000 2
23557 23556 23558 23560 1 180.0000771 15.1670000 2
23556 23558 23560 23561 1 180.0000771 15.1670000 2
23556 23558 23560 23562 1 180.0000771 15.1670000 2
23559 23558 23560 23561 1 180.0000771 15.1670000 2
23559 23558 23560 23562 1 180.0000771 15.1670000 2
23556 23560 23558 23559 4 180.0000771 4.6024000 2
23558 23560 23562 23563 1 180.0000771 15.1670000 2
23558 23560 23562 23564 1 180.0000771 15.1670000 2
23561 23560 23562 23563 1 180.0000771 15.1670000 2
23561 23560 23562 23564 1 180.0000771 15.1670000 2
23558 23562 23560 23561 4 180.0000771 4.6024000 2
23555 23562 23564 23565 4 180.0000771 4.6024000 2
23560 23562 23564 23565 1 180.0000771 15.1670000 2
23563 23562 23564 23565 1 180.0000771 15.1670000 2
23555 23564 23562 23560 1 180.0000771 15.1670000 2
23555 23564 23562 23563 1 180.0000771 15.1670000 2
23560 23564 23562 23563 4 180.0000771 4.6024000 2
23566 23567 23568 23569 1 180.0000771 15.1670000 2
23566 23567 23568 23570 1 180.0000771 15.1670000 2
23569 23567 23568 23570 4 180.0000771 4.6024000 2
23566 23567 23576 23568 4 180.0000771 4.6024000 2
23566 23567 23576 23574 1 180.0000771 15.1670000 2
23566 23567 23576 23577 1 180.0000771 15.1670000 2
23568 23567 23576 23574 1 180.0000771 15.1670000 2
23568 23567 23576 23577 1 180.0000771 15.1670000 2
23569 23568 23567 23576 1 180.0000771 15.1670000 2
23570 23568 23567 23576 1 180.0000771 15.1670000 2
23567 23568 23570 23571 1 180.0000771 15.1670000 2
23567 23568 23570 23572 1 180.0000771 15.1670000 2
23569 23568 23570 23571 1 180.0000771 15.1670000 2
23569 23568 23570 23572 1 180.0000771 15.1670000 2
23568 23570 23572 23573 1 180.0000771 15.1670000 2
23568 23570 23572 23574 1 180.0000771 15.1670000 2
23571 23570 23572 23573 1 180.0000771 15.1670000 2
23571 23570 23572 23574 1 180.0000771 15.1670000 2
23568 23572 23570 23571 4 180.0000771 4.6024000 2
23570 23572 23574 23575 1 180.0000771 15.1670000 2
23570 23572 23574 23576 1 180.0000771 15.1670000 2
23573 23572 23574 23575 1 180.0000771 15.1670000 2
23573 23572 23574 23576 1 180.0000771 15.1670000 2
23570 23574 23572 23573 4 180.0000771 4.6024000 2
23567 23574 23576 23577 4 180.0000771 4.6024000 2
23572 23574 23576 23577 1 180.0000771 15.1670000 2
23575 23574 23576 23577 1 180.0000771 15.1670000 2
23567 23576 23574 23572 1 180.0000771 15.1670000 2
23567 23576 23574 23575 1 180.0000771 15.1670000 2
23572 23576 23574 23575 4 180.0000771 4.6024000 2
23578 23579 23580 23581 1 180.0000771 15.1670000 2
23578 23579 23580 23582 1 180.0000771 15.1670000 2
23581 23579 23580 23582 4 180.0000771 4.6024000 2
23578 23579 23588 23580 4 180.0000771 4.6024000 2
23578 23579 23588 23586 1 180.0000771 15.1670000 2
23578 23579 23588 23589 1 180.0000771 15.1670000 2
23580 23579 23588 23586 1 180.0000771 15.1670000 2
23580 23579 23588 23589 1 180.0000771 15.1670000 2
23581 23580 23579 23588 1 180.0000771 15.1670000 2
23582 23580 23579 23588 1 180.0000771 15.1670000 2
23579 23580 23582 23583 1 180.0000771 15.1670000 2
23579 23580 23582 23584 1 180.0000771 15.1670000 2
23581 23580 23582 23583 1 180.0000771 15.1670000 2
23581 23580 23582 23584 1 180.0000771 15.1670000 2
23580 23582 23584 23585 1 180.0000771 15.1670000 2
23580 23582 23584 23586 1 180.0000771 15.1670000 2
23583 23582 23584 23585 1 180.0000771 15.1670000 2
23583 23582 23584 23586 1 180.0000771 15.1670000 2
23580 23584 23582 23583 4 180.0000771 4.6024000 2
23582 23584 23586 23587 1 180.0000771 15.1670000 2
23582 23584 23586 23588 1 180.0000771 15.1670000 2
23585 23584 23586 23587 1 180.0000771 15.1670000 2
23585 23584 23586 23588 1 180.0000771 15.1670000 2
23582 23586 23584 23585 4 180.0000771 4.6024000 2
23579 23586 23588 23589 4 180.0000771 4.6024000 2
23584 23586 23588 23589 1 180.0000771 15.1670000 2
23587 23586 23588 23589 1 180.0000771 15.1670000 2
23579 23588 23586 23584 1 180.0000771 15.1670000 2
23579 23588 23586 23587 1 180.0000771 15.1670000 2
23584 23588 23586 23587 4 180.0000771 4.6024000 2
23590 23591 23592 23593 1 180.0000771 15.1670000 2
23590 23591 23592 23594 1 180.0000771 15.1670000 2
23593 23591 23592 23594 4 180.0000771 4.6024000 2
23590 23591 23600 23592 4 180.0000771 4.6024000 2
23590 23591 23600 23598 1 180.0000771 15.1670000 2
23590 23591 23600 23601 1 180.0000771 15.1670000 2
23592 23591 23600 23598 1 180.0000771 15.1670000 2
23592 23591 23600 23601 1 180.0000771 15.1670000 2
23593 23592 23591 23600 1 180.0000771 15.1670000 2
23594 23592 23591 23600 1 180.0000771 15.1670000 2
23591 23592 23594 23595 1 180.0000771 15.1670000 2
23591 23592 23594 23596 1 180.0000771 15.1670000 2
23593 23592 23594 23595 1 180.0000771 15.1670000 2
23593 23592 23594 23596 1 180.0000771 15.1670000 2
23592 23594 23596 23597 1 180.0000771 15.1670000 2
23592 23594 23596 23598 1 180.0000771 15.1670000 2
23595 23594 23596 23597 1 180.0000771 15.1670000 2
23595 23594 23596 23598 1 180.0000771 15.1670000 2
23592 23596 23594 23595 4 180.0000771 4.6024000 2
23594 23596 23598 23599 1 180.0000771 15.1670000 2
23594 23596 23598 23600 1 180.0000771 15.1670000 2
23597 23596 23598 23599 1 180.0000771 15.1670000 2
23597 23596 23598 23600 1 180.0000771 15.1670000 2
23594 23598 23596 23597 4 180.0000771 4.6024000 2
23591 23598 23600 23601 4 180.0000771 4.6024000 2
23596 23598 23600 23601 1 180.0000771 15.1670000 2
23599 23598 23600 23601 1 180.0000771 15.1670000 2
23591 23600 23598 23596 1 180.0000771 15.1670000 2
23591 23600 23598 23599 1 180.0000771 15.1670000 2
23596 23600 23598 23599 4 180.0000771 4.6024000 2
